cyt computed by TONTO 23.02.09 v. 830bd7bc
GAUSSIAN             64 MOL ORBITALS    516 PRIMITIVES       30 NUCLEI
O1     1    (CENTRE  1)   2.80503294-12.05929207 -5.85443715  CHARGE =  8.0
O5     2    (CENTRE  2)  -1.34424177-15.37805965-16.11003680  CHARGE =  8.0
H5     3    (CENTRE  3)  -0.13563521-14.75772679-17.34823908  CHARGE =  1.0
O2     4    (CENTRE  4)  -2.54848864-12.85939702-11.19214201  CHARGE =  8.0
N2     5    (CENTRE  5)   1.15183355-14.24144464 -9.12493355  CHARGE =  7.0
O3     6    (CENTRE  6)   0.60115461 -8.62773669-15.42711224  CHARGE =  8.0
H3     7    (CENTRE  7)   0.31971156 -9.27454556-17.19740912  CHARGE =  1.0
O4     8    (CENTRE  8)  -0.26952653 -7.59040670-10.36564966  CHARGE =  8.0
H4     9    (CENTRE  9)  -1.14321102 -6.78844842-11.75077151  CHARGE =  1.0
C     10    (CENTRE 10)  -0.56191728-12.07491291 -9.62071723  CHARGE =  6.0
H     11    (CENTRE 11)  -1.27884623-11.45087341 -7.77891577  CHARGE =  1.0
N3    12    (CENTRE 12)   4.36260952-15.98488975 -6.55160676  CHARGE =  7.0
C4    13    (CENTRE 13)   2.81472117-14.03360797 -7.10604654  CHARGE =  6.0
C1    14    (CENTRE 14)   0.80218536 -9.93035627-11.02762562  CHARGE =  6.0
H1    15    (CENTRE 15)   2.84833933 -9.92056015-10.58323585  CHARGE =  1.0
C5    16    (CENTRE 16)   1.13642926-16.36243763-10.57764956  CHARGE =  6.0
H5a   17    (CENTRE 17)  -0.18407635-16.42042008-12.14739845  CHARGE =  1.0
C6    18    (CENTRE 18)  -2.41915078-11.64732538-13.62385621  CHARGE =  6.0
H6    19    (CENTRE 19)  -3.76872108-10.00528338-13.66687069  CHARGE =  1.0
C7    20    (CENTRE 20)   0.27611453-10.65182749-13.76267565  CHARGE =  6.0
H7    21    (CENTRE 21)   1.61793424-12.25044884-14.28974258  CHARGE =  1.0
C8    22    (CENTRE 22)   2.73886234-18.29333288-10.10337311  CHARGE =  6.0
H8    23    (CENTRE 23)   2.72239235-19.95761474-11.26755699  CHARGE =  1.0
C9    24    (CENTRE 24)   4.41105066-18.02698424 -8.01437810  CHARGE =  6.0
N     25    (CENTRE 25)   6.08711428-19.80881957 -7.44932437  CHARGE =  7.0
H9a   26    (CENTRE 26)   7.43087164-19.49957980 -6.04716432  CHARGE =  1.0
H9b   27    (CENTRE 27)   5.96794906-21.36084315 -8.35709730  CHARGE =  1.0
C10   28    (CENTRE 28)  -3.15642501-13.48952601-15.68966810  CHARGE =  6.0
H10a  29    (CENTRE 29)  -3.47807421-12.36959088-17.44320610  CHARGE =  1.0
H10b  30    (CENTRE 30)  -4.98943794-14.44266230-15.11092794  CHARGE =  1.0
CENTRE ASSIGNMENTS    1  1  1  1  1  1  1  1  1  1  1  1  1  1  1  1  1  1  1  1
CENTRE ASSIGNMENTS    1  1  1  1  1  2  2  2  2  2  2  2  2  2  2  2  2  2  2  2
CENTRE ASSIGNMENTS    2  2  2  2  2  2  2  2  2  2  3  3  3  3  3  3  3  4  4  4
CENTRE ASSIGNMENTS    4  4  4  4  4  4  4  4  4  4  4  4  4  4  4  4  4  4  4  4
CENTRE ASSIGNMENTS    4  4  5  5  5  5  5  5  5  5  5  5  5  5  5  5  5  5  5  5
CENTRE ASSIGNMENTS    5  5  5  5  5  5  5  6  6  6  6  6  6  6  6  6  6  6  6  6
CENTRE ASSIGNMENTS    6  6  6  6  6  6  6  6  6  6  6  6  7  7  7  7  7  7  7  8
CENTRE ASSIGNMENTS    8  8  8  8  8  8  8  8  8  8  8  8  8  8  8  8  8  8  8  8
CENTRE ASSIGNMENTS    8  8  8  8  9  9  9  9  9  9  9 10 10 10 10 10 10 10 10 10
CENTRE ASSIGNMENTS   10 10 10 10 10 10 10 10 10 10 10 10 10 10 10 10 11 11 11 11
CENTRE ASSIGNMENTS   11 11 11 12 12 12 12 12 12 12 12 12 12 12 12 12 12 12 12 12
CENTRE ASSIGNMENTS   12 12 12 12 12 12 12 12 13 13 13 13 13 13 13 13 13 13 13 13
CENTRE ASSIGNMENTS   13 13 13 13 13 13 13 13 13 13 13 13 13 14 14 14 14 14 14 14
CENTRE ASSIGNMENTS   14 14 14 14 14 14 14 14 14 14 14 14 14 14 14 14 14 14 15 15
CENTRE ASSIGNMENTS   15 15 15 15 15 16 16 16 16 16 16 16 16 16 16 16 16 16 16 16
CENTRE ASSIGNMENTS   16 16 16 16 16 16 16 16 16 16 17 17 17 17 17 17 17 18 18 18
CENTRE ASSIGNMENTS   18 18 18 18 18 18 18 18 18 18 18 18 18 18 18 18 18 18 18 18
CENTRE ASSIGNMENTS   18 18 19 19 19 19 19 19 19 20 20 20 20 20 20 20 20 20 20 20
CENTRE ASSIGNMENTS   20 20 20 20 20 20 20 20 20 20 20 20 20 20 21 21 21 21 21 21
CENTRE ASSIGNMENTS   21 22 22 22 22 22 22 22 22 22 22 22 22 22 22 22 22 22 22 22
CENTRE ASSIGNMENTS   22 22 22 22 22 22 23 23 23 23 23 23 23 24 24 24 24 24 24 24
CENTRE ASSIGNMENTS   24 24 24 24 24 24 24 24 24 24 24 24 24 24 24 24 24 24 25 25
CENTRE ASSIGNMENTS   25 25 25 25 25 25 25 25 25 25 25 25 25 25 25 25 25 25 25 25
CENTRE ASSIGNMENTS   25 25 25 26 26 26 26 26 26 26 27 27 27 27 27 27 27 28 28 28
CENTRE ASSIGNMENTS   28 28 28 28 28 28 28 28 28 28 28 28 28 28 28 28 28 28 28 28
CENTRE ASSIGNMENTS   28 28 29 29 29 29 29 29 29 30 30 30 30 30 30 30
TYPE ASSIGNMENTS      1  1  1  1  1  1  1  2  3  4  2  3  4  2  3  4  2  3  4  5
TYPE ASSIGNMENTS      6  7  8  9 10  1  1  1  1  1  1  1  2  3  4  2  3  4  2  3
TYPE ASSIGNMENTS      4  2  3  4  5  6  7  8  9 10  1  1  1  1  2  3  4  1  1  1
TYPE ASSIGNMENTS      1  1  1  1  2  3  4  2  3  4  2  3  4  2  3  4  5  6  7  8
TYPE ASSIGNMENTS      9 10  1  1  1  1  1  1  1  2  3  4  2  3  4  2  3  4  2  3
TYPE ASSIGNMENTS      4  5  6  7  8  9 10  1  1  1  1  1  1  1  2  3  4  2  3  4
TYPE ASSIGNMENTS      2  3  4  2  3  4  5  6  7  8  9 10  1  1  1  1  2  3  4  1
TYPE ASSIGNMENTS      1  1  1  1  1  1  2  3  4  2  3  4  2  3  4  2  3  4  5  6
TYPE ASSIGNMENTS      7  8  9 10  1  1  1  1  2  3  4  1  1  1  1  1  1  1  2  3
TYPE ASSIGNMENTS      4  2  3  4  2  3  4  2  3  4  5  6  7  8  9 10  1  1  1  1
TYPE ASSIGNMENTS      2  3  4  1  1  1  1  1  1  1  2  3  4  2  3  4  2  3  4  2
TYPE ASSIGNMENTS      3  4  5  6  7  8  9 10  1  1  1  1  1  1  1  2  3  4  2  3
TYPE ASSIGNMENTS      4  2  3  4  2  3  4  5  6  7  8  9 10  1  1  1  1  1  1  1
TYPE ASSIGNMENTS      2  3  4  2  3  4  2  3  4  2  3  4  5  6  7  8  9 10  1  1
TYPE ASSIGNMENTS      1  1  2  3  4  1  1  1  1  1  1  1  2  3  4  2  3  4  2  3
TYPE ASSIGNMENTS      4  2  3  4  5  6  7  8  9 10  1  1  1  1  2  3  4  1  1  1
TYPE ASSIGNMENTS      1  1  1  1  2  3  4  2  3  4  2  3  4  2  3  4  5  6  7  8
TYPE ASSIGNMENTS      9 10  1  1  1  1  2  3  4  1  1  1  1  1  1  1  2  3  4  2
TYPE ASSIGNMENTS      3  4  2  3  4  2  3  4  5  6  7  8  9 10  1  1  1  1  2  3
TYPE ASSIGNMENTS      4  1  1  1  1  1  1  1  2  3  4  2  3  4  2  3  4  2  3  4
TYPE ASSIGNMENTS      5  6  7  8  9 10  1  1  1  1  2  3  4  1  1  1  1  1  1  1
TYPE ASSIGNMENTS      2  3  4  2  3  4  2  3  4  2  3  4  5  6  7  8  9 10  1  1
TYPE ASSIGNMENTS      1  1  1  1  1  2  3  4  2  3  4  2  3  4  2  3  4  5  6  7
TYPE ASSIGNMENTS      8  9 10  1  1  1  1  2  3  4  1  1  1  1  2  3  4  1  1  1
TYPE ASSIGNMENTS      1  1  1  1  2  3  4  2  3  4  2  3  4  2  3  4  5  6  7  8
TYPE ASSIGNMENTS      9 10  1  1  1  1  2  3  4  1  1  1  1  2  3  4
EXPONENTS  0.2266177D+04 0.3408701D+03 0.7736314D+02 0.2147964D+02 0.6658943D+01
EXPONENTS  0.8097598D+00 0.2553077D+00 0.1772150D+02 0.1772150D+02 0.1772150D+02
EXPONENTS  0.3863551D+01 0.3863551D+01 0.3863551D+01 0.1048092D+01 0.1048092D+01
EXPONENTS  0.1048092D+01 0.2764154D+00 0.2764154D+00 0.2764154D+00 0.1200000D+01
EXPONENTS  0.1200000D+01 0.1200000D+01 0.1200000D+01 0.1200000D+01 0.1200000D+01
EXPONENTS  0.2266177D+04 0.3408701D+03 0.7736314D+02 0.2147964D+02 0.6658943D+01
EXPONENTS  0.8097598D+00 0.2553077D+00 0.1772150D+02 0.1772150D+02 0.1772150D+02
EXPONENTS  0.3863551D+01 0.3863551D+01 0.3863551D+01 0.1048092D+01 0.1048092D+01
EXPONENTS  0.1048092D+01 0.2764154D+00 0.2764154D+00 0.2764154D+00 0.1200000D+01
EXPONENTS  0.1200000D+01 0.1200000D+01 0.1200000D+01 0.1200000D+01 0.1200000D+01
EXPONENTS  0.1301070D+02 0.1962257D+01 0.4445380D+00 0.1219496D+00 0.8000000D+00
EXPONENTS  0.8000000D+00 0.8000000D+00 0.2266177D+04 0.3408701D+03 0.7736314D+02
EXPONENTS  0.2147964D+02 0.6658943D+01 0.8097598D+00 0.2553077D+00 0.1772150D+02
EXPONENTS  0.1772150D+02 0.1772150D+02 0.3863551D+01 0.3863551D+01 0.3863551D+01
EXPONENTS  0.1048092D+01 0.1048092D+01 0.1048092D+01 0.2764154D+00 0.2764154D+00
EXPONENTS  0.2764154D+00 0.1200000D+01 0.1200000D+01 0.1200000D+01 0.1200000D+01
EXPONENTS  0.1200000D+01 0.1200000D+01 0.1712842D+04 0.2576481D+03 0.5845825D+02
EXPONENTS  0.1619837D+02 0.5005260D+01 0.5873186D+00 0.1876459D+00 0.1357147D+02
EXPONENTS  0.1357147D+02 0.1357147D+02 0.2925737D+01 0.2925737D+01 0.2925737D+01
EXPONENTS  0.7992775D+00 0.7992775D+00 0.7992775D+00 0.2195435D+00 0.2195435D+00
EXPONENTS  0.2195435D+00 0.1000000D+01 0.1000000D+01 0.1000000D+01 0.1000000D+01
EXPONENTS  0.1000000D+01 0.1000000D+01 0.2266177D+04 0.3408701D+03 0.7736314D+02
EXPONENTS  0.2147964D+02 0.6658943D+01 0.8097598D+00 0.2553077D+00 0.1772150D+02
EXPONENTS  0.1772150D+02 0.1772150D+02 0.3863551D+01 0.3863551D+01 0.3863551D+01
EXPONENTS  0.1048092D+01 0.1048092D+01 0.1048092D+01 0.2764154D+00 0.2764154D+00
EXPONENTS  0.2764154D+00 0.1200000D+01 0.1200000D+01 0.1200000D+01 0.1200000D+01
EXPONENTS  0.1200000D+01 0.1200000D+01 0.1301070D+02 0.1962257D+01 0.4445380D+00
EXPONENTS  0.1219496D+00 0.8000000D+00 0.8000000D+00 0.8000000D+00 0.2266177D+04
EXPONENTS  0.3408701D+03 0.7736314D+02 0.2147964D+02 0.6658943D+01 0.8097598D+00
EXPONENTS  0.2553077D+00 0.1772150D+02 0.1772150D+02 0.1772150D+02 0.3863551D+01
EXPONENTS  0.3863551D+01 0.3863551D+01 0.1048092D+01 0.1048092D+01 0.1048092D+01
EXPONENTS  0.2764154D+00 0.2764154D+00 0.2764154D+00 0.1200000D+01 0.1200000D+01
EXPONENTS  0.1200000D+01 0.1200000D+01 0.1200000D+01 0.1200000D+01 0.1301070D+02
EXPONENTS  0.1962257D+01 0.4445380D+00 0.1219496D+00 0.8000000D+00 0.8000000D+00
EXPONENTS  0.8000000D+00 0.1238402D+04 0.1862900D+03 0.4225118D+02 0.1167656D+02
EXPONENTS  0.3593051D+01 0.4024515D+00 0.1309018D+00 0.9468097D+01 0.9468097D+01
EXPONENTS  0.9468097D+01 0.2010355D+01 0.2010355D+01 0.2010355D+01 0.5477100D+00
EXPONENTS  0.5477100D+00 0.5477100D+00 0.1526861D+00 0.1526861D+00 0.1526861D+00
EXPONENTS  0.8000000D+00 0.8000000D+00 0.8000000D+00 0.8000000D+00 0.8000000D+00
EXPONENTS  0.8000000D+00 0.1301070D+02 0.1962257D+01 0.4445380D+00 0.1219496D+00
EXPONENTS  0.8000000D+00 0.8000000D+00 0.8000000D+00 0.1712842D+04 0.2576481D+03
EXPONENTS  0.5845825D+02 0.1619837D+02 0.5005260D+01 0.5873186D+00 0.1876459D+00
EXPONENTS  0.1357147D+02 0.1357147D+02 0.1357147D+02 0.2925737D+01 0.2925737D+01
EXPONENTS  0.2925737D+01 0.7992775D+00 0.7992775D+00 0.7992775D+00 0.2195435D+00
EXPONENTS  0.2195435D+00 0.2195435D+00 0.1000000D+01 0.1000000D+01 0.1000000D+01
EXPONENTS  0.1000000D+01 0.1000000D+01 0.1000000D+01 0.1238402D+04 0.1862900D+03
EXPONENTS  0.4225118D+02 0.1167656D+02 0.3593051D+01 0.4024515D+00 0.1309018D+00
EXPONENTS  0.9468097D+01 0.9468097D+01 0.9468097D+01 0.2010355D+01 0.2010355D+01
EXPONENTS  0.2010355D+01 0.5477100D+00 0.5477100D+00 0.5477100D+00 0.1526861D+00
EXPONENTS  0.1526861D+00 0.1526861D+00 0.8000000D+00 0.8000000D+00 0.8000000D+00
EXPONENTS  0.8000000D+00 0.8000000D+00 0.8000000D+00 0.1238402D+04 0.1862900D+03
EXPONENTS  0.4225118D+02 0.1167656D+02 0.3593051D+01 0.4024515D+00 0.1309018D+00
EXPONENTS  0.9468097D+01 0.9468097D+01 0.9468097D+01 0.2010355D+01 0.2010355D+01
EXPONENTS  0.2010355D+01 0.5477100D+00 0.5477100D+00 0.5477100D+00 0.1526861D+00
EXPONENTS  0.1526861D+00 0.1526861D+00 0.8000000D+00 0.8000000D+00 0.8000000D+00
EXPONENTS  0.8000000D+00 0.8000000D+00 0.8000000D+00 0.1301070D+02 0.1962257D+01
EXPONENTS  0.4445380D+00 0.1219496D+00 0.8000000D+00 0.8000000D+00 0.8000000D+00
EXPONENTS  0.1238402D+04 0.1862900D+03 0.4225118D+02 0.1167656D+02 0.3593051D+01
EXPONENTS  0.4024515D+00 0.1309018D+00 0.9468097D+01 0.9468097D+01 0.9468097D+01
EXPONENTS  0.2010355D+01 0.2010355D+01 0.2010355D+01 0.5477100D+00 0.5477100D+00
EXPONENTS  0.5477100D+00 0.1526861D+00 0.1526861D+00 0.1526861D+00 0.8000000D+00
EXPONENTS  0.8000000D+00 0.8000000D+00 0.8000000D+00 0.8000000D+00 0.8000000D+00
EXPONENTS  0.1301070D+02 0.1962257D+01 0.4445380D+00 0.1219496D+00 0.8000000D+00
EXPONENTS  0.8000000D+00 0.8000000D+00 0.1238402D+04 0.1862900D+03 0.4225118D+02
EXPONENTS  0.1167656D+02 0.3593051D+01 0.4024515D+00 0.1309018D+00 0.9468097D+01
EXPONENTS  0.9468097D+01 0.9468097D+01 0.2010355D+01 0.2010355D+01 0.2010355D+01
EXPONENTS  0.5477100D+00 0.5477100D+00 0.5477100D+00 0.1526861D+00 0.1526861D+00
EXPONENTS  0.1526861D+00 0.8000000D+00 0.8000000D+00 0.8000000D+00 0.8000000D+00
EXPONENTS  0.8000000D+00 0.8000000D+00 0.1301070D+02 0.1962257D+01 0.4445380D+00
EXPONENTS  0.1219496D+00 0.8000000D+00 0.8000000D+00 0.8000000D+00 0.1238402D+04
EXPONENTS  0.1862900D+03 0.4225118D+02 0.1167656D+02 0.3593051D+01 0.4024515D+00
EXPONENTS  0.1309018D+00 0.9468097D+01 0.9468097D+01 0.9468097D+01 0.2010355D+01
EXPONENTS  0.2010355D+01 0.2010355D+01 0.5477100D+00 0.5477100D+00 0.5477100D+00
EXPONENTS  0.1526861D+00 0.1526861D+00 0.1526861D+00 0.8000000D+00 0.8000000D+00
EXPONENTS  0.8000000D+00 0.8000000D+00 0.8000000D+00 0.8000000D+00 0.1301070D+02
EXPONENTS  0.1962257D+01 0.4445380D+00 0.1219496D+00 0.8000000D+00 0.8000000D+00
EXPONENTS  0.8000000D+00 0.1238402D+04 0.1862900D+03 0.4225118D+02 0.1167656D+02
EXPONENTS  0.3593051D+01 0.4024515D+00 0.1309018D+00 0.9468097D+01 0.9468097D+01
EXPONENTS  0.9468097D+01 0.2010355D+01 0.2010355D+01 0.2010355D+01 0.5477100D+00
EXPONENTS  0.5477100D+00 0.5477100D+00 0.1526861D+00 0.1526861D+00 0.1526861D+00
EXPONENTS  0.8000000D+00 0.8000000D+00 0.8000000D+00 0.8000000D+00 0.8000000D+00
EXPONENTS  0.8000000D+00 0.1301070D+02 0.1962257D+01 0.4445380D+00 0.1219496D+00
EXPONENTS  0.8000000D+00 0.8000000D+00 0.8000000D+00 0.1238402D+04 0.1862900D+03
EXPONENTS  0.4225118D+02 0.1167656D+02 0.3593051D+01 0.4024515D+00 0.1309018D+00
EXPONENTS  0.9468097D+01 0.9468097D+01 0.9468097D+01 0.2010355D+01 0.2010355D+01
EXPONENTS  0.2010355D+01 0.5477100D+00 0.5477100D+00 0.5477100D+00 0.1526861D+00
EXPONENTS  0.1526861D+00 0.1526861D+00 0.8000000D+00 0.8000000D+00 0.8000000D+00
EXPONENTS  0.8000000D+00 0.8000000D+00 0.8000000D+00 0.1712842D+04 0.2576481D+03
EXPONENTS  0.5845825D+02 0.1619837D+02 0.5005260D+01 0.5873186D+00 0.1876459D+00
EXPONENTS  0.1357147D+02 0.1357147D+02 0.1357147D+02 0.2925737D+01 0.2925737D+01
EXPONENTS  0.2925737D+01 0.7992775D+00 0.7992775D+00 0.7992775D+00 0.2195435D+00
EXPONENTS  0.2195435D+00 0.2195435D+00 0.1000000D+01 0.1000000D+01 0.1000000D+01
EXPONENTS  0.1000000D+01 0.1000000D+01 0.1000000D+01 0.1301070D+02 0.1962257D+01
EXPONENTS  0.4445380D+00 0.1219496D+00 0.8000000D+00 0.8000000D+00 0.8000000D+00
EXPONENTS  0.1301070D+02 0.1962257D+01 0.4445380D+00 0.1219496D+00 0.8000000D+00
EXPONENTS  0.8000000D+00 0.8000000D+00 0.1238402D+04 0.1862900D+03 0.4225118D+02
EXPONENTS  0.1167656D+02 0.3593051D+01 0.4024515D+00 0.1309018D+00 0.9468097D+01
EXPONENTS  0.9468097D+01 0.9468097D+01 0.2010355D+01 0.2010355D+01 0.2010355D+01
EXPONENTS  0.5477100D+00 0.5477100D+00 0.5477100D+00 0.1526861D+00 0.1526861D+00
EXPONENTS  0.1526861D+00 0.8000000D+00 0.8000000D+00 0.8000000D+00 0.8000000D+00
EXPONENTS  0.8000000D+00 0.8000000D+00 0.1301070D+02 0.1962257D+01 0.4445380D+00
EXPONENTS  0.1219496D+00 0.8000000D+00 0.8000000D+00 0.8000000D+00 0.1301070D+02
EXPONENTS  0.1962257D+01 0.4445380D+00 0.1219496D+00 0.8000000D+00 0.8000000D+00
EXPONENTS  0.8000000D+00
MO    1    MO 0.0        OCC NO =    2.0000000  ORB. ENERGY = -20.6057133
  0.24469292D-04  0.44122217D-04  0.64935938D-04  0.64587509D-04  0.25609696D-04
  0.24071875D-04 -0.84042621D-04  0.38605616D-04  0.44591718D-06 -0.53643533D-04
  0.30607229D-04  0.35353119D-06 -0.42529561D-04  0.13330398D-04  0.15397380D-06
 -0.18522943D-04 -0.13517109D-04  0.15462085D-04  0.23242512D-04  0.78630229D-04
  0.48592561D-04  0.31334653D-04 -0.19941933D-06  0.19208206D-05 -0.42390608D-05
 -0.48433959D-02 -0.87334511D-02 -0.12853271D-01 -0.12784304D-01 -0.50691248D-02
 -0.22826767D-03  0.46909918D-03  0.43851359D-04 -0.15621360D-03 -0.35004431D-04
  0.34766149D-04 -0.12384896D-03 -0.27752145D-04  0.15141736D-04 -0.53940064D-04
 -0.12086920D-04 -0.27434282D-04  0.18425911D-03  0.23639585D-04 -0.23222080D-03
 -0.13295980D-03 -0.23747645D-03  0.34996787D-04 -0.13223835D-03  0.12062131D-04
 -0.13557026D-04 -0.22998675D-04 -0.26182782D-04 -0.10458720D-04  0.10887872D-04
  0.30159147D-04 -0.67311491D-04  0.50288245D-03  0.90678099D-03  0.13345357D-02
  0.13273749D-02  0.52631955D-03  0.12488446D-03 -0.61417390D-03  0.21330533D-05
 -0.23028781D-03  0.13670642D-03  0.16911232D-05 -0.18257634D-03  0.10838332D-03
  0.73653659D-06 -0.79517657D-04  0.47204296D-04 -0.18015845D-03  0.12243163D-03
 -0.12602668D-03  0.16683902D-04  0.29431203D-03  0.23298411D-03  0.76915088D-04
 -0.15193746D-04 -0.19325339D-03  0.77602742D-05  0.13978318D-04  0.20486506D-04
  0.20236026D-04  0.79879788D-05  0.13464008D-03 -0.68143814D-03 -0.82562618D-04
 -0.52427610D-04 -0.15568953D-03 -0.66000233D-04 -0.41910426D-04 -0.12445760D-03
 -0.30661754D-04 -0.19470343D-04 -0.57819314D-04  0.13031925D-03  0.36624527D-06
  0.30761210D-03  0.14136062D-03  0.67542630D-05  0.59641163D-04  0.56007128D-04
 -0.13453361D-03  0.39241592D-04  0.12476611D+01  0.22497412D+01  0.33110089D+01
  0.32932430D+01  0.13058090D+01  0.23762589D-01 -0.51306104D-02 -0.17651413D-02
 -0.64390422D-02 -0.88479083D-03 -0.13994359D-02 -0.51049888D-02 -0.70147814D-03
 -0.60949774D-03 -0.22233810D-02 -0.30551549D-03  0.30361696D-03  0.11999707D-02
 -0.93987348D-03 -0.62013916D-02 -0.66329788D-02 -0.56517435D-02 -0.19653614D-03
  0.47810526D-03  0.13680694D-02 -0.34332832D-04 -0.58243575D-04 -0.66307245D-04
  0.56891151D-04 -0.29443105D-03 -0.70855534D-03 -0.12522318D-02 -0.18399370D-03
 -0.33177134D-03 -0.48827744D-03 -0.48565748D-03 -0.19256882D-03 -0.30927008D-04
  0.21893650D-03 -0.71578464D-04  0.17048563D-05  0.29339907D-04 -0.56748698D-04
  0.13516408D-05  0.23261208D-04 -0.24715818D-04  0.58868150D-06  0.10130977D-04
  0.38799744D-04 -0.10452769D-03  0.34778213D-04 -0.20943506D-04 -0.52912109D-04
 -0.23740375D-03  0.11153501D-03 -0.60594181D-05  0.31900538D-04 -0.28538707D-04
 -0.48414191D-04 -0.55117009D-04  0.44634657D-04  0.56513844D-04  0.74905172D-04
  0.17811451D-03 -0.95463049D-05 -0.17172101D-04 -0.25033016D-04 -0.24516215D-04
 -0.96417141D-05 -0.33881398D-03  0.11896272D-02 -0.11508765D-03 -0.22329304D-04
  0.21828597D-03 -0.91249364D-04 -0.17704200D-04  0.17307206D-03 -0.43656657D-04
 -0.84702640D-05  0.82803291D-04  0.99948593D-04 -0.25253659D-04 -0.52384244D-03
 -0.14456448D-03 -0.30811920D-04 -0.20198564D-03  0.79946388D-04  0.12068388D-03
 -0.18924859D-03  0.38195764D-04  0.64796806D-04  0.73767753D-04  0.43335263D-04
  0.10500195D-03 -0.59883068D-04  0.96479746D-05  0.17933265D-05  0.32302579D-05
  0.47342389D-05  0.46763555D-05  0.18459468D-05  0.83650215D-05  0.13214116D-04
 -0.15386966D-04  0.23355205D-04 -0.14665659D-04 -0.12300280D-04  0.18670059D-04
 -0.11723670D-04 -0.57143461D-05  0.86735566D-05 -0.54464700D-05 -0.27740892D-05
 -0.13399952D-04  0.32120391D-06  0.23303805D-04  0.15209896D-04  0.12298256D-04
 -0.19792399D-05 -0.62451127D-05 -0.88352324D-05  0.31006239D-06  0.55774696D-06
  0.81306817D-06  0.79628257D-06  0.31316126D-06 -0.12781134D-04 -0.38691155D-04
  0.76539513D-04  0.18154792D-04  0.49988388D-04  0.60685765D-04  0.14394362D-04
  0.39634216D-04  0.29034040D-04  0.68867299D-05  0.18962295D-04  0.13872072D-04
  0.44492700D-04  0.35916550D-04 -0.75073306D-05 -0.14768660D-04 -0.47543299D-05
 -0.51513216D-05 -0.32173881D-04  0.68576631D-05 -0.99530683D-05 -0.17903796D-04
 -0.26099660D-04 -0.25560839D-04 -0.10052543D-04  0.12673293D-03 -0.14087550D-02
  0.70908213D-04 -0.46507470D-04  0.22333941D-03  0.56220885D-04 -0.36874305D-04
  0.17707877D-03  0.26897896D-04 -0.17641865D-04  0.84720233D-04  0.23287186D-03
  0.93073497D-04  0.27931757D-03 -0.69373812D-04 -0.39709372D-04 -0.23961914D-03
  0.57403850D-05 -0.90523614D-04  0.26902565D-03  0.28097091D-04  0.47665017D-04
  0.54264113D-04  0.11411498D-04 -0.25086324D-05 -0.12613997D-04  0.13148101D-05
  0.83381394D-05  0.14998827D-04  0.21864876D-04  0.21413481D-04  0.84214738D-05
  0.10024030D-04  0.32397775D-03 -0.11895891D-03  0.32536228D-04  0.84641760D-04
 -0.94318765D-04  0.25796949D-04  0.67109781D-04 -0.45125159D-04  0.12342098D-04
  0.32107498D-04  0.16647750D-03  0.91025643D-04  0.14781240D-03  0.67251242D-05
  0.91295543D-04 -0.19743588D-04 -0.30326151D-04 -0.13629544D-04  0.74426796D-04
 -0.58581917D-05 -0.99380681D-05 -0.11313968D-04  0.12395867D-03  0.31788452D-04
 -0.94589812D-04  0.36116028D-04 -0.11917099D-04 -0.21436738D-04 -0.31249886D-04
 -0.30604739D-04 -0.12036203D-04  0.53211176D-05 -0.16558648D-03 -0.26034900D-03
 -0.18453539D-03  0.19438135D-03 -0.20642250D-03 -0.14631229D-03  0.15411884D-03
 -0.98759226D-04 -0.70000549D-04  0.73735454D-04 -0.18682773D-03 -0.46724546D-03
 -0.20646484D-03 -0.13687165D-03 -0.11869712D-03 -0.61788503D-04 -0.45776885D-03
  0.24238748D-03  0.19883737D-03  0.20746288D-04  0.35194824D-04  0.40067455D-04
  0.61572695D-04 -0.18015761D-03 -0.59338570D-04  0.17256671D-03 -0.76714229D-04
 -0.13799522D-03 -0.20116564D-03 -0.19701262D-03 -0.77480938D-04  0.27456090D-05
  0.26277548D-02  0.32463807D-03  0.17153811D-03 -0.34939027D-03  0.25739528D-03
  0.13600715D-03 -0.27702052D-03  0.12314626D-03  0.65070236D-04 -0.13253561D-03
 -0.13228131D-03  0.96958050D-03 -0.35659465D-03 -0.21872293D-03 -0.56264418D-03
 -0.32971564D-03 -0.39760492D-04 -0.34755158D-05  0.40880501D-03 -0.29362194D-04
 -0.49811188D-04 -0.56707417D-04 -0.16476935D-03 -0.68234416D-04 -0.35809201D-03
  0.32617323D-03  0.14079286D-05  0.25326126D-05  0.36919729D-05  0.36157530D-05
  0.14219999D-05  0.31071363D-04 -0.33579073D-03  0.29431683D-04  0.11965701D-04
  0.20465404D-04  0.23335453D-04  0.94872272D-05  0.16226373D-04  0.11164438D-04
  0.45389974D-05  0.77632237D-05 -0.36340606D-04 -0.14926153D-03 -0.93377497D-04
  0.29198254D-04 -0.25624195D-04  0.14503911D-04  0.46660847D-04 -0.41665909D-04
  0.26791568D-04 -0.17498898D-04 -0.29685823D-04 -0.33795747D-04 -0.37278111D-04
  0.75068459D-05  0.15805708D-04 -0.21303659D-04  0.81361379D-06  0.14635462D-05
  0.21335173D-05  0.20894714D-05  0.82174534D-06  0.14788103D-04  0.19779426D-03
 -0.20975004D-04 -0.37149737D-05 -0.14058642D-04 -0.16630419D-04 -0.29454854D-05
 -0.11146654D-04 -0.79565324D-05 -0.14092158D-05 -0.53329211D-05 -0.25689336D-04
 -0.18971121D-04 -0.64194417D-04  0.19477489D-04  0.85272559D-05  0.19975884D-04
 -0.19602254D-04  0.50200983D-05 -0.18825944D-04  0.20721395D-05  0.37324743D-05
  0.54702831D-05  0.54034005D-05  0.21329409D-05  0.20472866D-04 -0.66488144D-04
 -0.18751196D-04  0.21840093D-05 -0.16793879D-04 -0.14989633D-04  0.17458885D-05
 -0.13424961D-04 -0.69637395D-05  0.81108810D-06 -0.62368394D-05  0.30321868D-04
 -0.90695052D-05  0.31197394D-04  0.21496880D-04  0.74135217D-05  0.29779611D-04
  0.23354830D-04 -0.10478883D-04  0.94080077D-05 -0.42005845D-05 -0.71260378D-05
 -0.81126190D-05 -0.40290679D-05  0.17274620D-05  0.13114862D-04  0.73168826D-05
  0.62616902D-05  0.10622579D-04  0.12093247D-04  0.43263055D-06  0.10369303D-05
  0.15151767D-05 -0.50255179D-05  0.10149038D-04  0.18256310D-04  0.26613546D-04
  0.26064116D-04  0.10250471D-04  0.16512144D-03 -0.77417666D-03  0.50557761D-04
  0.15954266D-03  0.26697525D-04  0.40085654D-04  0.12649635D-03  0.21167625D-04
  0.19178278D-04  0.60519957D-04  0.10127279D-04 -0.23884617D-03 -0.13901641D-03
 -0.14511447D-03  0.11636167D-03  0.59635378D-04  0.62560324D-04  0.47140282D-04
 -0.35037676D-04 -0.93497442D-04  0.50669008D-04  0.85956910D-04  0.97857418D-04
  0.39933411D-04  0.11076760D-03  0.27565550D-04  0.29941291D-05 -0.47976547D-05
 -0.81389312D-05 -0.92657449D-05 -0.28464999D-04 -0.20820639D-04 -0.79867231D-04
  0.46730643D-04
MO    2    MO 0.0        OCC NO =    2.0000000  ORB. ENERGY = -20.6038621
  0.95715549D-05  0.17259111D-04  0.25400731D-04  0.25264437D-04  0.10017642D-04
  0.73668734D-05 -0.73052112D-05 -0.35292256D-04  0.21720548D-04 -0.30540892D-04
 -0.27980338D-04  0.17220442D-04 -0.24213370D-04 -0.12186305D-04  0.75000367D-05
 -0.10545674D-04  0.11328107D-04 -0.46689250D-05  0.15952628D-04  0.19523004D-04
  0.21008702D-04  0.17537103D-04  0.81029684D-05 -0.19053129D-04 -0.21590845D-04
  0.12475837D+01  0.22496016D+01  0.33108034D+01  0.32930385D+01  0.13057279D+01
  0.23471636D-01 -0.38402954D-02  0.15976611D-03  0.60002870D-02 -0.25464600D-02
  0.12666546D-03  0.47571358D-02 -0.20188794D-02  0.55166735D-04  0.20718802D-02
 -0.87928461D-03  0.63748310D-03 -0.76569670D-03 -0.27345045D-03 -0.64524015D-02
 -0.71240485D-02 -0.62953738D-02  0.11463916D-02 -0.13176859D-02 -0.74655093D-03
 -0.13205488D-03 -0.22402313D-03 -0.25503855D-03  0.87870265D-04  0.11259913D-02
  0.78641741D-03 -0.11752844D-02  0.69535434D-03  0.12538399D-02  0.18453123D-02
  0.18354109D-02  0.72776169D-03  0.59749672D-04  0.83051848D-05 -0.26815226D-04
 -0.23714019D-03 -0.49307216D-03 -0.21259595D-04 -0.18800902D-03 -0.39091651D-03
 -0.92592129D-05 -0.81883761D-04 -0.17025626D-03  0.59351031D-04  0.10088214D-03
  0.23052950D-03  0.32189462D-03  0.21497012D-03  0.10263129D-03  0.62824799D-04
  0.13840774D-03 -0.10198089D-03 -0.69982269D-05 -0.12605668D-04 -0.18474761D-04
 -0.18248879D-04 -0.72035712D-05 -0.37650960D-04  0.98129398D-04  0.87288281D-04
 -0.39900037D-04  0.25660219D-04  0.69777910D-04 -0.31895933D-04  0.20512679D-04
  0.32416751D-04 -0.14817906D-04  0.95295831D-05 -0.87143032D-04  0.51988487D-04
 -0.69851672D-04 -0.56419494D-04 -0.59675088D-04 -0.58074237D-04  0.17260250D-04
  0.32879606D-04 -0.67376473D-04  0.47976313D-02  0.86509298D-02  0.12731823D-01
  0.12663507D-01  0.50212273D-02 -0.69885143D-04  0.49821839D-03 -0.86194362D-05
  0.57284619D-05 -0.70528588D-04 -0.68336446D-05  0.45416279D-05 -0.55916337D-04
 -0.29762642D-05  0.19780198D-05 -0.24353299D-04 -0.40424357D-04 -0.15026759D-03
  0.46519683D-04 -0.33174454D-03 -0.22212101D-03 -0.22840723D-03  0.72733650D-04
  0.26781698D-05 -0.35373179D-04 -0.12531903D-04 -0.21259616D-04 -0.24202954D-04
 -0.23885371D-04 -0.62334697D-05 -0.23453124D-04 -0.83723550D-04  0.44775722D-04
  0.80738099D-04  0.11882459D-03  0.11818700D-03  0.46862517D-04  0.25093036D-04
 -0.93333434D-04  0.33619205D-04 -0.15715873D-04  0.13838454D-04  0.26653913D-04
 -0.12459828D-04  0.10971376D-04  0.11608606D-04 -0.54266415D-05  0.47783747D-05
 -0.42123705D-04  0.40417271D-04 -0.86404968D-05  0.43746016D-04  0.39018583D-04
  0.58618875D-04  0.25278699D-04  0.34932492D-04 -0.45898568D-04 -0.25074355D-05
 -0.42537128D-05 -0.48426282D-05 -0.14516216D-04  0.12673225D-04  0.14851648D-04
 -0.44130280D-04 -0.14696086D-05 -0.26435639D-05 -0.38537146D-05 -0.37741556D-05
 -0.14842964D-05  0.66730976D-04 -0.18504504D-03  0.78579482D-04  0.98038915D-04
 -0.70772727D-04  0.62303192D-04  0.77731962D-04 -0.56113462D-04  0.29807869D-04
  0.37189494D-04 -0.26846502D-04  0.41900206D-04  0.39937896D-04  0.76491419D-04
 -0.48548424D-04  0.16359755D-04  0.40467348D-04 -0.30372026D-04 -0.10556061D-03
  0.29606624D-04 -0.27708969D-05 -0.47006591D-05 -0.53514531D-05  0.14572197D-05
 -0.60211646D-04  0.56747189D-05 -0.22973354D-05  0.68628778D-07  0.12361868D-06
  0.18117450D-06  0.17895937D-06  0.70642506D-07 -0.86114974D-06  0.76351032D-05
  0.15287156D-04 -0.31791364D-05 -0.87673753D-05  0.12220493D-04 -0.25413891D-05
 -0.70086054D-05  0.56772791D-05 -0.11806541D-05 -0.32559905D-05 -0.14086311D-04
  0.43054178D-05 -0.13308472D-05  0.30779260D-05 -0.22015185D-05  0.72868381D-06
  0.62999525D-05  0.34133240D-05  0.65359228D-05  0.13596406D-05  0.24457510D-05
  0.35653485D-05  0.34917428D-05  0.13732293D-05  0.14129320D-05  0.34784989D-04
 -0.27375643D-04 -0.86874700D-07 -0.33899931D-05 -0.21705284D-04 -0.68880208D-07
 -0.26878186D-05 -0.10384512D-04 -0.32954527D-07 -0.12859397D-05 -0.33578953D-05
 -0.10722814D-04 -0.25579965D-04 -0.82384241D-05  0.60990500D-05  0.10282543D-04
  0.13345506D-04  0.10918641D-04  0.21922769D-04 -0.54426920D-06 -0.97904327D-06
 -0.14272223D-05 -0.13977577D-05 -0.54970882D-06  0.34213770D-04 -0.15059924D-03
 -0.11712409D-04 -0.59868494D-04  0.60726866D-04 -0.92863996D-05 -0.47467840D-04
  0.48148416D-04 -0.44429150D-05 -0.22710155D-04  0.23035765D-04 -0.21130204D-04
  0.12061615D-03  0.55282250D-04  0.26810391D-04  0.46510246D-04  0.12101827D-04
 -0.15529768D-04 -0.12492472D-04 -0.57288035D-04  0.12452463D-04  0.21124851D-04
  0.24049531D-04  0.11118675D-04  0.12244862D-04 -0.74711805D-04 -0.74484633D-05
  0.58340260D-05  0.10494373D-04  0.15298408D-04  0.14982576D-04  0.58923333D-05
  0.60861772D-04 -0.33722130D-03 -0.70591536D-04 -0.50007441D-04 -0.67441379D-04
 -0.55969801D-04 -0.39649322D-04 -0.53472142D-04 -0.26777770D-04 -0.18969523D-04
 -0.25582808D-04  0.59091980D-04  0.24047571D-04  0.96202595D-04  0.94563764D-04
  0.52078416D-04  0.28752414D-04  0.59689711D-04 -0.20061312D-04  0.59945506D-04
 -0.68101068D-05 -0.11552935D-04 -0.13152408D-04  0.28780788D-03  0.68867176D-04
  0.56030455D-04 -0.99003290D-04 -0.14992573D-04 -0.26968966D-04 -0.39314616D-04
 -0.38502975D-04 -0.15142414D-04 -0.40723371D-04 -0.28704428D-03 -0.12152248D-04
  0.21280166D-03  0.37260776D-03 -0.96351339D-05  0.16872372D-03  0.29542893D-03
 -0.46097608D-05  0.80722904D-04  0.14134279D-03 -0.44399251D-04  0.97115542D-04
  0.45543958D-04 -0.84819366D-04 -0.17905703D-03 -0.12163638D-03  0.10661143D-03
  0.43070037D-04 -0.21473888D-03 -0.91689324D-05 -0.15554540D-04 -0.17708025D-04
  0.62432222D-04  0.95975001D-04 -0.86797218D-04 -0.47719770D-04 -0.21478281D-05
 -0.38635600D-05 -0.56321913D-05 -0.55159161D-05 -0.21692943D-05  0.12034446D-05
  0.79170928D-05 -0.73643476D-04  0.12450242D-03 -0.37966185D-04 -0.58389589D-04
  0.98714037D-04 -0.30102190D-04 -0.27935475D-04  0.47227999D-04 -0.14401865D-04
  0.14519678D-04 -0.15447700D-03  0.27043245D-03  0.35776424D-04 -0.17201414D-03
 -0.43576952D-04 -0.72451866D-04  0.66562605D-05  0.36694575D-04 -0.35860073D-04
 -0.60834447D-04 -0.69256817D-04  0.49571492D-04 -0.34570659D-04  0.13610045D-03
 -0.14134918D-03 -0.25943918D-05 -0.46668484D-05 -0.68032031D-05 -0.66627526D-05
 -0.26203211D-05 -0.13066754D-04  0.18298709D-03 -0.92346149D-05 -0.13463560D-04
 -0.25164332D-04 -0.73218348D-05 -0.10674832D-04 -0.19952005D-04 -0.35030034D-05
 -0.51071859D-05 -0.95456868D-05 -0.44444068D-05  0.29306920D-04  0.15079675D-04