OH computed by TONTO 23.02.09 v. 830bd7bc
GAUSSIAN              5 MOL ORBITALS    129 PRIMITIVES        2 NUCLEI
H      1    (CENTRE  1)   0.00000000  0.00000000  0.00000000  CHARGE =  1.0
O      2    (CENTRE  2)   1.88972612  0.00000000  0.00000000  CHARGE =  8.0
CENTRE ASSIGNMENTS    1  1  1  1  1  1  1  1  1  1  1  1  1  1  1  1  1  1  1  1
CENTRE ASSIGNMENTS    1  1  1  1  1  1  1  1  1  1  1  1  1  1  1  1  1  2  2  2
CENTRE ASSIGNMENTS    2  2  2  2  2  2  2  2  2  2  2  2  2  2  2  2  2  2  2  2
CENTRE ASSIGNMENTS    2  2  2  2  2  2  2  2  2  2  2  2  2  2  2  2  2  2  2  2
CENTRE ASSIGNMENTS    2  2  2  2  2  2  2  2  2  2  2  2  2  2  2  2  2  2  2  2
CENTRE ASSIGNMENTS    2  2  2  2  2  2  2  2  2  2  2  2  2  2  2  2  2  2  2  2
CENTRE ASSIGNMENTS    2  2  2  2  2  2  2  2  2
TYPE ASSIGNMENTS      1  1  1  1  1  1  2  3  4  2  3  4  2  3  4  5  6  7  8  9
TYPE ASSIGNMENTS     10  5  6  7  8  9 10 11 12 13 14 15 17 16 18 19 20  1  1  1
TYPE ASSIGNMENTS      1  1  1  1  1  1  1  1  1  1  1  1  1  1  1  1  1  1  2  3
TYPE ASSIGNMENTS      4  2  3  4  2  3  4  2  3  4  2  3  4  2  3  4  5  6  7  8
TYPE ASSIGNMENTS      9 10  5  6  7  8  9 10  5  6  7  8  9 10 11 12 13 14 15 17
TYPE ASSIGNMENTS     16 18 19 20 11 12 13 14 15 17 16 18 19 20 21 22 23 24 25 26
TYPE ASSIGNMENTS     27 28 29 30 31 32 33 34 35
EXPONENTS  0.8264000D+02 0.1241000D+02 0.2824000D+01 0.7977000D+00 0.2581000D+00
EXPONENTS  0.8989000D-01 0.2292000D+01 0.2292000D+01 0.2292000D+01 0.8380000D+00
EXPONENTS  0.8380000D+00 0.8380000D+00 0.2920000D+00 0.2920000D+00 0.2920000D+00
EXPONENTS  0.2062000D+01 0.2062000D+01 0.2062000D+01 0.2062000D+01 0.2062000D+01
EXPONENTS  0.2062000D+01 0.6620000D+00 0.6620000D+00 0.6620000D+00 0.6620000D+00
EXPONENTS  0.6620000D+00 0.6620000D+00 0.1397000D+01 0.1397000D+01 0.1397000D+01
EXPONENTS  0.1397000D+01 0.1397000D+01 0.1397000D+01 0.1397000D+01 0.1397000D+01
EXPONENTS  0.1397000D+01 0.1397000D+01 0.6142000D+05 0.9199000D+04 0.2091000D+04
EXPONENTS  0.5909000D+03 0.1923000D+03 0.6932000D+02 0.2697000D+02 0.1110000D+02
EXPONENTS  0.4682000D+01 0.6142000D+05 0.9199000D+04 0.2091000D+04 0.5909000D+03
EXPONENTS  0.1923000D+03 0.6932000D+02 0.2697000D+02 0.1110000D+02 0.4682000D+01
EXPONENTS  0.1428000D+01 0.5547000D+00 0.2067000D+00 0.6342000D+02 0.6342000D+02
EXPONENTS  0.6342000D+02 0.1466000D+02 0.1466000D+02 0.1466000D+02 0.4459000D+01
EXPONENTS  0.4459000D+01 0.4459000D+01 0.1531000D+01 0.1531000D+01 0.1531000D+01
EXPONENTS  0.5302000D+00 0.5302000D+00 0.5302000D+00 0.1750000D+00 0.1750000D+00
EXPONENTS  0.1750000D+00 0.3775000D+01 0.3775000D+01 0.3775000D+01 0.3775000D+01
EXPONENTS  0.3775000D+01 0.3775000D+01 0.1300000D+01 0.1300000D+01 0.1300000D+01
EXPONENTS  0.1300000D+01 0.1300000D+01 0.1300000D+01 0.4440000D+00 0.4440000D+00
EXPONENTS  0.4440000D+00 0.4440000D+00 0.4440000D+00 0.4440000D+00 0.2666000D+01
EXPONENTS  0.2666000D+01 0.2666000D+01 0.2666000D+01 0.2666000D+01 0.2666000D+01
EXPONENTS  0.2666000D+01 0.2666000D+01 0.2666000D+01 0.2666000D+01 0.8590000D+00
EXPONENTS  0.8590000D+00 0.8590000D+00 0.8590000D+00 0.8590000D+00 0.8590000D+00
EXPONENTS  0.8590000D+00 0.8590000D+00 0.8590000D+00 0.8590000D+00 0.1846000D+01
EXPONENTS  0.1846000D+01 0.1846000D+01 0.1846000D+01 0.1846000D+01 0.1846000D+01
EXPONENTS  0.1846000D+01 0.1846000D+01 0.1846000D+01 0.1846000D+01 0.1846000D+01
EXPONENTS  0.1846000D+01 0.1846000D+01 0.1846000D+01 0.1846000D+01
MO    1    MO 0.0        OCC NO =    2.0000000  ORB. ENERGY = -20.1510156
  0.13936869D-05  0.25714653D-05  0.41734115D-05  0.31576960D-03 -0.78436497D-04
  0.74811554D-05 -0.44428229D-03 -0.31787197D-13 -0.84627174D-13  0.10428748D-02
  0.34724624D-13  0.88596049D-13  0.13779396D-05 -0.60640459D-15 -0.17786519D-14
  0.83028097D-03 -0.24578115D-03 -0.24578115D-03 -0.16490815D-14 -0.54795000D-14
  0.36422728D-14  0.40875098D-03 -0.20260543D-04 -0.20260543D-04  0.42120704D-14
  0.11476397D-13 -0.40825385D-15  0.16638869D-03 -0.43851778D-13 -0.10531179D-12
 -0.33072763D-13 -0.84594766D-13 -0.98415754D-03 -0.10781959D-12 -0.98415754D-03
 -0.42671534D-13  0.16148504D-14  0.25076125D+00  0.46821621D+00  0.80910810D+00
  0.13025027D+01  0.19332673D+01  0.25034981D+01  0.25799621D+01  0.17306723D+01
  0.49320654D+00 -0.44120729D-03 -0.84446745D-03 -0.14494405D-02 -0.23772530D-02
 -0.35494044D-02 -0.49256553D-02 -0.55536341D-02 -0.52296572D-02 -0.20756300D-02
  0.18873528D-01 -0.10873724D-02  0.82503772D-05 -0.13810647D-01  0.74673849D-14
 -0.12452793D-14 -0.15308764D-01  0.82774133D-14 -0.13803616D-14 -0.13331071D-01
  0.72080795D-14 -0.12020369D-14  0.57239323D-02 -0.99558497D-14  0.48807186D-14
  0.28550348D-04 -0.16626760D-14 -0.90012150D-14 -0.11266447D-04  0.82431555D-17
  0.20585990D-15 -0.13054453D-01 -0.23889355D-01 -0.23889355D-01 -0.70430701D-13
 -0.53494421D-14  0.15162988D-13  0.10178271D-02  0.85129462D-02  0.85129462D-02
  0.50333890D-13  0.56717152D-14 -0.10159686D-13  0.17983258D-03  0.13690749D-03
  0.13690749D-03  0.14590861D-14  0.54366979D-14  0.49167747D-16 -0.11637512D-01
  0.26898790D-13 -0.25339395D-14  0.38846157D-13  0.40216465D-13 -0.12219628D-01
 -0.10154288D-13 -0.12219628D-01  0.20792035D-13 -0.35834071D-14  0.10539775D-05
  0.10048424D-14  0.58362584D-14 -0.49178892D-14 -0.11184737D-13 -0.10070531D-03
  0.50489168D-14 -0.10070531D-03  0.14029867D-14 -0.92931216D-15 -0.61209502D-02
 -0.14208866D-01 -0.14208866D-01 -0.75195344D-13  0.13761504D-13 -0.62779431D-13
  0.14066332D-13 -0.43767750D-14  0.21513952D-13 -0.19734284D-01 -0.19734284D-01
 -0.28417733D-01  0.62493338D-14 -0.36807698D-14 -0.68847944D-13
MO    2    MO 0.0        OCC NO =    2.0000000  ORB. ENERGY =  -0.8651999
 -0.17433953D-01 -0.32167057D-01 -0.52206174D-01 -0.54624485D-01 -0.15291868D-01
 -0.28677331D-02 -0.26395342D-01  0.77205603D-15 -0.32029106D-14 -0.15998920D-01
 -0.24016293D-15  0.36126184D-14 -0.30852460D-02  0.25740808D-15 -0.61074196D-16
 -0.26731816D-01 -0.37875374D-02 -0.37875374D-02  0.11699140D-14  0.44741166D-14
 -0.35930505D-15 -0.68053481D-02 -0.22260640D-02 -0.22260640D-02  0.14601954D-14
  0.10579232D-14  0.28027613D-16 -0.73293878D-02  0.68526974D-15 -0.37123580D-14
  0.46529851D-14  0.21442436D-14  0.20130163D-03 -0.42262543D-14  0.20130163D-03
  0.10870845D-14 -0.28697163D-15  0.18806394D-02  0.35114909D-02  0.60680850D-02
  0.97684068D-02  0.14498965D-01  0.18775537D-01  0.19348996D-01  0.12979559D-01
  0.36989114D-02  0.49023205D-01  0.93830046D-01  0.16104951D+00  0.26414015D+00
  0.39437965D+00  0.54729696D+00  0.61707263D+00  0.58107506D+00  0.23062637D+00
 -0.23213774D+00 -0.21738671D+00 -0.65193319D-01  0.13674621D+00  0.88253593D-15
  0.80060549D-14  0.15157982D+00  0.97826946D-15  0.88745158D-14  0.13199769D+00
  0.85188982D-15  0.77280442D-14  0.69854274D-01  0.59813605D-14 -0.14934785D-13
  0.27343076D-01 -0.25994334D-14  0.83030127D-14  0.86798074D-04  0.24917999D-15
 -0.26413318D-15 -0.45322378D-01 -0.45614444D-01 -0.45614444D-01 -0.21328550D-13
 -0.24971204D-13  0.19806114D-13 -0.17800841D-01  0.21083264D-01  0.21083264D-01
  0.12635586D-13  0.11524828D-13 -0.14456889D-13  0.26480342D-02  0.31537342D-02
  0.31537342D-02  0.70051304D-15  0.32012841D-15  0.18435206D-15  0.25663491D-01
 -0.59531932D-14  0.19720572D-13 -0.54361867D-14  0.16138770D-13 -0.17777535D-02
  0.20549259D-13 -0.17777535D-02 -0.37544449D-14  0.33872387D-14 -0.37727669D-02
  0.20657501D-14 -0.58757787D-14  0.10063234D-15 -0.82731425D-14 -0.56526448D-02
 -0.60028355D-14 -0.56526448D-02  0.18479446D-14 -0.44694773D-15 -0.95816299D-03
 -0.27626069D-01 -0.27626069D-01 -0.10240095D-13 -0.32876818D-14 -0.19364223D-13
  0.19478865D-13 -0.16726038D-13  0.21243644D-13 -0.25607525D-01 -0.25607525D-01
 -0.55252118D-01  0.24028789D-13 -0.18943392D-13 -0.17780391D-13
MO    3    MO 0.0        OCC NO =    2.0000000  ORB. ENERGY =  -0.2162026
 -0.27916327D-01 -0.51507887D-01 -0.83595765D-01 -0.79038332D-01 -0.48598450D-01
 -0.14173326D-01 -0.60872044D-01  0.11716337D-14 -0.13394150D-14  0.41452246D-01
 -0.90432948D-15  0.21660902D-14  0.10392945D-01  0.80740993D-15 -0.61639004D-16
 -0.21510163D-01  0.29415784D-03  0.29415784D-03  0.51033645D-15  0.16132666D-14
 -0.73823677D-15  0.12953950D-01  0.24215277D-02  0.24215277D-02  0.10494394D-14
 -0.16446782D-15  0.38810841D-15 -0.38344343D-01  0.95962665D-15 -0.23460352D-14
  0.27033812D-14 -0.11414805D-14 -0.38863273D-01 -0.23072590D-14 -0.38863273D-01
  0.92389939D-15 -0.92693681D-15  0.15605801D-02  0.29138828D-02  0.50353793D-02
  0.81059565D-02  0.12031438D-01  0.15580196D-01  0.16056059D-01  0.10770614D-01
  0.30694069D-02 -0.16452800D-01 -0.31490537D-01 -0.54050228D-01 -0.88648737D-01
 -0.13235874D+00 -0.18367970D+00 -0.20709729D+00 -0.19501606D+00 -0.77401092D-01
  0.35338044D-01  0.60433594D-01  0.97962941D-01  0.10757630D+01  0.13159717D-13
  0.38333124D-13  0.11924570D+01  0.14587224D-13  0.42491330D-13  0.10384071D+01
  0.12702745D-13  0.37002004D-13  0.61790975D+00  0.75196376D-14  0.17724478D-13
  0.16775679D+00  0.42582332D-14  0.31821627D-14  0.37444108D-01  0.25303632D-15
  0.15475988D-14 -0.10136731D+00 -0.47474176D-02 -0.47474176D-02 -0.21083364D-13
 -0.12886459D-13 -0.78620214D-14 -0.53069976D-01 -0.72085366D-02 -0.72085366D-02
  0.14673938D-13  0.40354552D-14  0.67178618D-14 -0.46066358D-01 -0.23481004D-01
 -0.23481004D-01  0.18811411D-14 -0.12811545D-14  0.19756564D-14  0.87548611D-01
 -0.48871206D-14  0.11373329D-13 -0.38310919D-14  0.11797507D-13  0.36187831D-01
  0.11473240D-13  0.36187831D-01 -0.45874780D-14  0.26156039D-15  0.45803299D-01
 -0.12314778D-14  0.26038791D-14 -0.21887353D-14  0.30393626D-14  0.24948906D-01
  0.25818232D-14  0.24948906D-01 -0.12250397D-14 -0.12737272D-15 -0.50376567D-01
 -0.24336756D-01 -0.24336756D-01 -0.20195827D-13 -0.28705764D-14 -0.23551810D-13
 -0.12009454D-13 -0.55013754D-14 -0.11877153D-13 -0.53941332D-01 -0.53941332D-01
 -0.48673518D-01 -0.10969162D-13 -0.64569310D-14 -0.23435527D-13
MO    4    MO 0.0        OCC NO =    2.0000000  ORB. ENERGY =  -0.0881807
  0.34625206D-15  0.63886313D-15  0.10368558D-14  0.18131080D-14  0.53163619D-14
 -0.12508360D-14 -0.24322574D-13 -0.15489515D-01  0.50685269D-01  0.26763648D-13
  0.73857223D-02 -0.24167788D-01 -0.16835089D-14 -0.34608666D-02  0.11324754D-01
 -0.48190095D-14 -0.27481229D-14 -0.35638062D-14 -0.42348589D-02  0.13857436D-01
 -0.25176208D-16  0.16010006D-14 -0.12325813D-14 -0.17026562D-14 -0.18684101D-02
  0.61138693D-02 -0.10889798D-15 -0.28908175D-13 -0.12500289D-01  0.40903830D-01
 -0.15657333D-01  0.51234410D-01 -0.26752913D-13  0.40903829D-01 -0.28229370D-13
 -0.12500288D-01 -0.31504062D-15 -0.40147001D-16 -0.74961648D-16 -0.12953861D-15
 -0.20853133D-15 -0.30951705D-15 -0.40081130D-15 -0.41305321D-15 -0.27708149D-15
 -0.78962612D-16  0.26973213D-15  0.51626527D-15  0.88611559D-15  0.14533339D-14
  0.21699288D-14  0.30112999D-14  0.33952148D-14  0.31971515D-14  0.12689366D-14
  0.47209314D-14 -0.47620028D-14 -0.49818445D-14 -0.26544902D-13 -0.39201288D+00
  0.12827566D+01 -0.29424374D-13 -0.43453668D+00  0.14219043D+01 -0.25623129D-13
 -0.37840021D+00  0.12382128D+01 -0.14401284D-13 -0.27777586D+00  0.90894674D+00
 -0.90945033D-14 -0.67547253D-02  0.22103021D-01 -0.52289315D-16 -0.20479479D-01
  0.67013583D-01 -0.91605824D-14  0.12905762D-13  0.74845978D-14  0.15522001D-01
 -0.50791571D-01  0.39131164D-14  0.17071488D-13 -0.28184635D-14  0.21084706D-14
  0.47807578D-02 -0.15643743D-01 -0.58480013D-15  0.15643274D-14  0.34231573D-14
  0.34411710D-14  0.20989303D-02 -0.68681845D-02 -0.83584608D-16  0.21013179D-13
 -0.30551161D-01  0.99970452D-01 -0.40821746D-01  0.13357818D+00  0.19705899D-13
  0.99970452D-01  0.27635662D-13 -0.30551161D-01  0.57592717D-14  0.50610033D-14
 -0.46760378D-01  0.15301075D+00 -0.50167226D-01  0.16415874D+00  0.68971077D-14
  0.15301074D+00  0.60257076D-14 -0.46760374D-01 -0.47653719D-15 -0.16080049D-13
  0.13000018D-13  0.44010761D-14  0.52133032D-02 -0.17059132D-01  0.27028455D-02
  0.18256654D-14 -0.88443345D-02 -0.41497237D-15 -0.13742785D-13 -0.14938078D-13
  0.16728527D-13  0.10784665D-14 -0.88443330D-02  0.27028451D-02
MO    5    MO 0.0        OCC NO =    2.0000000  ORB. ENERGY =  -0.0881807
 -0.68271814D-16 -0.12596703D-15 -0.20444074D-15  0.41498126D-14 -0.31595421D-15
  0.47784237D-15  0.29014769D-13  0.50685269D-01  0.15489515D-01 -0.29327843D-13
 -0.24167788D-01 -0.73857223D-02  0.30776450D-14  0.11324754D-01  0.34608666D-02
  0.18232669D-14 -0.40349096D-14 -0.36301653D-14  0.13857436D-01  0.42348589D-02
 -0.75785920D-15 -0.32113004D-14  0.50202503D-15  0.98528239D-15  0.61138693D-02
  0.18684101D-02  0.12709398D-14  0.34388223D-13  0.40903830D-01  0.12500289D-01
  0.51234410D-01  0.15657333D-01  0.36981576D-13  0.12500288D-01  0.35659130D-13
  0.40903829D-01  0.53876684D-15 -0.76949559D-15 -0.14367862D-14 -0.24828602D-14
 -0.39969097D-14 -0.59324980D-14 -0.76823304D-14 -0.79169706D-14 -0.53108074D-14
 -0.15134725D-14  0.58486419D-15  0.11194257D-14  0.19213776D-14  0.31512855D-14
  0.47050889D-14  0.65294465D-14  0.73618949D-14  0.69324312D-14  0.27514542D-14
 -0.15750170D-14  0.32762559D-14 -0.39471214D-14 -0.17571293D-13  0.12827566D+01
  0.39201288D+00 -0.19477348D-13  0.14219043D+01  0.43453668D+00 -0.16961129D-13
  0.12382128D+01  0.37840021D+00 -0.27922640D-13  0.90894674D+00  0.27777586D+00
  0.12970722D-13  0.22103021D-01  0.67547253D-02 -0.13773736D-14  0.67013583D-01
  0.20479479D-01 -0.11159390D-14  0.13753904D-14  0.20807931D-14 -0.50791571D-01
 -0.15522001D-01  0.48517225D-14  0.89891468D-14  0.50507085D-14  0.43341062D-14
 -0.15643743D-01 -0.47807578D-02 -0.36571757D-14  0.68576816D-15  0.16731131D-15
 -0.46164245D-15 -0.68681845D-02 -0.20989303D-02  0.13415077D-14 -0.12314749D-13
  0.99970452D-01  0.30551161D-01  0.13357818D+00  0.40821746D-01 -0.67105367D-14
  0.30551161D-01 -0.93807610D-14  0.99970452D-01 -0.14875403D-13 -0.12102554D-13
  0.15301075D+00  0.46760378D-01  0.16415874D+00  0.50167226D-01 -0.15524473D-13
  0.46760374D-01 -0.15110135D-13  0.15301074D+00  0.12235953D-14 -0.92184508D-14
 -0.42709853D-14 -0.39516908D-14 -0.17059132D-01 -0.52133032D-02 -0.88443345D-02
 -0.92466878D-15 -0.27028455D-02  0.87458572D-14 -0.70399017D-14 -0.28990936D-14
 -0.11500348D-14  0.11199954D-14 -0.27028451D-02 -0.88443330D-02
END DATA
 THE HF ENERGY =     -75.402119962597 THE VIRIAL(-V/T)=   2.00000000
