13
# CELL(abcABC):  105.83544   105.83544   105.83544    90.00000    90.00000    90.00000  Step:         100  Bead:       0 positions{angstrom}  cell{angstrom}
       C  3.77705e+00  5.78545e+00  4.12507e+00
       H  3.77378e+00  5.62214e+00  3.04608e+00
       C  2.39537e+00  6.24906e+00  4.36126e+00
       O  2.16455e+00  7.39830e+00  5.03920e+00
       O  1.48017e+00  5.59730e+00  3.92724e+00
       N  4.71672e+00  6.79695e+00  4.65023e+00
       C  3.93660e+00  4.42718e+00  4.84652e+00
       H  4.95362e+00  4.05950e+00  4.73615e+00
       H  3.21933e+00  3.69363e+00  4.46720e+00
       H  3.73730e+00  4.54897e+00  5.90047e+00
       H  3.22747e+00  7.76311e+00  5.24577e+00
       H  5.28440e+00  7.23724e+00  3.91187e+00
       H  5.35269e+00  6.42984e+00  5.36801e+00