fchk produced by OCC                                                    
SP         r2scan                                              def2-tzvp
Number of atoms                            I               13
Charge                                     I                0
Multiplicity                               I                1
Number of electrons                        I               48
Number of alpha electrons                  I               24
Number of beta electrons                   I               24
Number of basis functions                  I              228
Number of independent functions            I              228
Number of point charges in /Mol/           I                0
Number of translation vectors              I                0
Atomic numbers                             I   N=          13
           6           1           6           8           8           7
           6           1           1           1           1           1
           1
Nuclear charges                            R   N=          13
  6.00000000e+00  1.00000000e+00  6.00000000e+00  8.00000000e+00  8.00000000e+00
  7.00000000e+00  6.00000000e+00  1.00000000e+00  1.00000000e+00  1.00000000e+00
  1.00000000e+00  1.00000000e+00  1.00000000e+00
Current cartesian coordinates              R   N=          39
  7.06703143e+00  1.08730911e+01  7.85439933e+00  7.18948812e+00  1.03804322e+01
  5.86303540e+00  4.37703329e+00  1.18509953e+01  8.32551954e+00  4.10574631e+00
  1.37819799e+01  9.64915404e+00  2.61569242e+00  1.05875601e+01  7.32207059e+00
  8.93704030e+00  1.29010124e+01  8.40179836e+00  7.62470730e+00  8.56278386e+00
  9.48732239e+00  9.45958785e+00  7.76201665e+00  9.04889310e+00  6.22438932e+00
  7.11255164e+00  9.15090732e+00  7.59143935e+00  9.05825085e+00  1.14789182e+01
  8.73316469e+00  1.35381216e+01  1.02074500e+01  8.63489292e+00  1.43716878e+01
  7.16951296e+00  1.07237699e+01  1.22204333e+01  8.14027100e+00
Force Field                                I                0
Int Atom Types                             I   N=          13
           0           0           0           0           0           0
           0           0           0           0           0           0
           0
MM Charges                                 R   N=          13
  0.00000000e+00  0.00000000e+00  0.00000000e+00  0.00000000e+00  0.00000000e+00
  0.00000000e+00  0.00000000e+00  0.00000000e+00  0.00000000e+00  0.00000000e+00
  0.00000000e+00  0.00000000e+00  0.00000000e+00
Integer atomic weights                     I   N=          13
          12           1          12          16          16          14
          12           1           1           1           1           1
           1
Real atomic weights                        R   N=          13
  1.20107002e+01  1.00794005e+00  1.20107002e+01  1.59994001e+01  1.59994001e+01
  1.40066996e+01  1.20107002e+01  1.00794005e+00  1.00794005e+00  1.00794005e+00
  1.00794005e+00  1.00794005e+00  1.00794005e+00
Atom residue num                           I   N=          13
           0           0           0           0           0           0
           0           0           0           0           0           0
           0
Number of contracted shells                I               94
Number of primitive shells                 I              162
Pure/Cartesian d shells                    I                0
Pure/Cartesian f shells                    I                0
Highest angular momentum                   I                1
Largest degree of contraction              I                6
Shell types                                I   N=          94
           0           0           0           0           0           1
           1           1          -2          -2          -3           0
           0           0           1           0           0           0
           0           0           1           1           1          -2
          -2          -3           0           0           0           0
           0           1           1           1          -2          -2
          -3           0           0           0           0           0
           1           1           1          -2          -2          -3
           0           0           0           0           0           1
           1           1          -2          -2          -3           0
           0           0           0           0           1           1
           1          -2          -2          -3           0           0
           0           1           0           0           0           1
           0           0           0           1           0           0
           0           1           0           0           0           1
           0           0           0           1
Number of primitives per shell             I   N=          94
           6           2           1           1           1           4
           1           1           1           1           1           3
           1           1           1           6           2           1
           1           1           4           1           1           1
           1           1           6           2           1           1
           1           4           1           1           1           1
           1           6           2           1           1           1
           4           1           1           1           1           1
           6           2           1           1           1           4
           1           1           1           1           1           6
           2           1           1           1           4           1
           1           1           1           1           3           1
           1           1           3           1           1           1
           3           1           1           1           3           1
           1           1           3           1           1           1
           3           1           1           1
Shell to atom map                          I   N=          94
           1           1           1           1           1           1
           1           1           1           1           1           2
           2           2           2           3           3           3
           3           3           3           3           3           3
           3           3           4           4           4           4
           4           4           4           4           4           4
           4           5           5           5           5           5
           5           5           5           5           5           5
           6           6           6           6           6           6
           6           6           6           6           6           7
           7           7           7           7           7           7
           7           7           7           7           8           8
           8           8           9           9           9           9
          10          10          10          10          11          11
          11          11          12          12          12          12
          13          13          13          13
Primitive exponents                        R   N=         162
  1.35753497e+04  2.03523337e+03  4.63225624e+02  1.31200196e+02  4.28530159e+01
  1.55841858e+01  6.20671385e+00  2.57648965e+00  5.76963394e-01  2.29728314e-01
  9.51644400e-02  3.46972322e+01  7.95826228e+00  2.37808269e+00  8.14332082e-01
  2.88875473e-01  1.00568237e-01  1.09700000e+00  3.18000000e-01  7.61000000e-01
  3.40613410e+01  5.12357460e+00  1.16466260e+00  3.27230410e-01  1.03072410e-01
  8.00000000e-01  1.35753497e+04  2.03523337e+03  4.63225624e+02  1.31200196e+02
  4.28530159e+01  1.55841858e+01  6.20671385e+00  2.57648965e+00  5.76963394e-01
  2.29728314e-01  9.51644400e-02  3.46972322e+01  7.95826228e+00  2.37808269e+00
  8.14332082e-01  2.88875473e-01  1.00568237e-01  1.09700000e+00  3.18000000e-01
  7.61000000e-01  2.70323826e+04  4.05238714e+03  9.22327227e+02  2.61240710e+02
  8.53546414e+01  3.10350352e+01  1.22608607e+01  4.99870760e+00  1.17031082e+00
  4.64747410e-01  1.85045364e-01  6.32749548e+01  1.46270494e+01  4.45012235e+00
  1.52757996e+00  5.29351179e-01  1.74784213e-01  2.31400000e+00  6.45000000e-01
  1.42800000e+00  2.70323826e+04  4.05238714e+03  9.22327227e+02  2.61240710e+02
  8.53546414e+01  3.10350352e+01  1.22608607e+01  4.99870760e+00  1.17031082e+00
  4.64747410e-01  1.85045364e-01  6.32749548e+01  1.46270494e+01  4.45012235e+00
  1.52757996e+00  5.29351179e-01  1.74784213e-01  2.31400000e+00  6.45000000e-01
  1.42800000e+00  1.97308006e+04  2.95789587e+03  6.73221336e+02  1.90682495e+02
  6.22954419e+01  2.26541612e+01  8.97914774e+00  3.68630024e+00  8.46600768e-01
  3.36471338e-01  1.36476537e-01  4.92003805e+01  1.13467905e+01  3.42739724e+00
  1.17855251e+00  4.16422050e-01  1.42608260e-01  1.65400000e+00  4.69000000e-01
  1.09300000e+00  1.35753497e+04  2.03523337e+03  4.63225624e+02  1.31200196e+02
  4.28530159e+01  1.55841858e+01  6.20671385e+00  2.57648965e+00  5.76963394e-01
  2.29728314e-01  9.51644400e-02  3.46972322e+01  7.95826228e+00  2.37808269e+00
  8.14332082e-01  2.88875473e-01  1.00568237e-01  1.09700000e+00  3.18000000e-01
  7.61000000e-01  3.40613410e+01  5.12357460e+00  1.16466260e+00  3.27230410e-01
  1.03072410e-01  8.00000000e-01  3.40613410e+01  5.12357460e+00  1.16466260e+00
  3.27230410e-01  1.03072410e-01  8.00000000e-01  3.40613410e+01  5.12357460e+00
  1.16466260e+00  3.27230410e-01  1.03072410e-01  8.00000000e-01  3.40613410e+01
  5.12357460e+00  1.16466260e+00  3.27230410e-01  1.03072410e-01  8.00000000e-01
  3.40613410e+01  5.12357460e+00  1.16466260e+00  3.27230410e-01  1.03072410e-01
  8.00000000e-01  3.40613410e+01  5.12357460e+00  1.16466260e+00  3.27230410e-01
  1.03072410e-01  8.00000000e-01
Contraction coefficients                   R   N=         162
  6.06455036e-04  4.69790889e-03  2.43324776e-02  9.73999683e-02  3.01955843e-01
  6.62336091e-01  6.55953085e-01  3.75856333e-01  1.00000000e+00  1.00000000e+00
  1.00000000e+00  1.13272200e-02  7.61696592e-02  3.01922522e-01  7.27850273e-01
  1.00000000e+00  1.00000000e+00  1.00000000e+00  1.00000000e+00  1.00000000e+00
  2.54393072e-02  1.90085949e-01  8.52441130e-01  1.00000000e+00  1.00000000e+00
  1.00000000e+00  6.06455036e-04  4.69790889e-03  2.43324776e-02  9.73999683e-02
  3.01955843e-01  6.62336091e-01  6.55953085e-01  3.75856333e-01  1.00000000e+00
  1.00000000e+00  1.00000000e+00  1.13272200e-02  7.61696592e-02  3.01922522e-01
  7.27850273e-01  1.00000000e+00  1.00000000e+00  1.00000000e+00  1.00000000e+00
  1.00000000e+00  5.72273352e-04  4.43532335e-03  2.30201077e-02  9.28224907e-02
  2.93785000e-01  6.74016045e-01  6.38399370e-01  3.95345871e-01  1.00000000e+00
  1.00000000e+00  1.00000000e+00  1.20183322e-02  8.30054218e-02  3.19917439e-01
  7.07155429e-01  1.00000000e+00  1.00000000e+00  1.00000000e+00  1.00000000e+00
  1.00000000e+00  5.72273352e-04  4.43532335e-03  2.30201077e-02  9.28224907e-02
  2.93785000e-01  6.74016045e-01  6.38399370e-01  3.95345871e-01  1.00000000e+00
  1.00000000e+00  1.00000000e+00  1.20183322e-02  8.30054218e-02  3.19917439e-01
  7.07155429e-01  1.00000000e+00  1.00000000e+00  1.00000000e+00  1.00000000e+00
  1.00000000e+00  5.86264026e-04  4.54288206e-03  2.35584135e-02  9.47091933e-02
  2.97197849e-01  6.69162469e-01  6.45966836e-01  3.87005744e-01  1.00000000e+00
  1.00000000e+00  1.00000000e+00  1.14488251e-02  7.84223380e-02  3.08180947e-01
  7.20271964e-01  1.00000000e+00  1.00000000e+00  1.00000000e+00  1.00000000e+00
  1.00000000e+00  6.06455036e-04  4.69790889e-03  2.43324776e-02  9.73999683e-02
  3.01955843e-01  6.62336091e-01  6.55953085e-01  3.75856333e-01  1.00000000e+00
  1.00000000e+00  1.00000000e+00  1.13272200e-02  7.61696592e-02  3.01922522e-01
  7.27850273e-01  1.00000000e+00  1.00000000e+00  1.00000000e+00  1.00000000e+00
  1.00000000e+00  2.54393072e-02  1.90085949e-01  8.52441130e-01  1.00000000e+00
  1.00000000e+00  1.00000000e+00  2.54393072e-02  1.90085949e-01  8.52441130e-01
  1.00000000e+00  1.00000000e+00  1.00000000e+00  2.54393072e-02  1.90085949e-01
  8.52441130e-01  1.00000000e+00  1.00000000e+00  1.00000000e+00  2.54393072e-02
  1.90085949e-01  8.52441130e-01  1.00000000e+00  1.00000000e+00  1.00000000e+00
  2.54393072e-02  1.90085949e-01  8.52441130e-01  1.00000000e+00  1.00000000e+00
  1.00000000e+00  2.54393072e-02  1.90085949e-01  8.52441130e-01  1.00000000e+00
  1.00000000e+00  1.00000000e+00
P(S=P) Contraction coefficients            R   N=         162
  0.00000000e+00  0.00000000e+00  0.00000000e+00  0.00000000e+00  0.00000000e+00
  0.00000000e+00  0.00000000e+00  0.00000000e+00  0.00000000e+00  0.00000000e+00
  0.00000000e+00  0.00000000e+00  0.00000000e+00  0.00000000e+00  0.00000000e+00
  0.00000000e+00  0.00000000e+00  0.00000000e+00  0.00000000e+00  0.00000000e+00
  0.00000000e+00  0.00000000e+00  0.00000000e+00  0.00000000e+00  0.00000000e+00
  0.00000000e+00  0.00000000e+00  0.00000000e+00  0.00000000e+00  0.00000000e+00
  0.00000000e+00  0.00000000e+00  0.00000000e+00  0.00000000e+00  0.00000000e+00
  0.00000000e+00  0.00000000e+00  0.00000000e+00  0.00000000e+00  0.00000000e+00
  0.00000000e+00  0.00000000e+00  0.00000000e+00  0.00000000e+00  0.00000000e+00
  0.00000000e+00  0.00000000e+00  0.00000000e+00  0.00000000e+00  0.00000000e+00
  0.00000000e+00  0.00000000e+00  0.00000000e+00  0.00000000e+00  0.00000000e+00
  0.00000000e+00  0.00000000e+00  0.00000000e+00  0.00000000e+00  0.00000000e+00
  0.00000000e+00  0.00000000e+00  0.00000000e+00  0.00000000e+00  0.00000000e+00
  0.00000000e+00  0.00000000e+00  0.00000000e+00  0.00000000e+00  0.00000000e+00
  0.00000000e+00  0.00000000e+00  0.00000000e+00  0.00000000e+00  0.00000000e+00
  0.00000000e+00  0.00000000e+00  0.00000000e+00  0.00000000e+00  0.00000000e+00
  0.00000000e+00  0.00000000e+00  0.00000000e+00  0.00000000e+00  0.00000000e+00
  0.00000000e+00  0.00000000e+00  0.00000000e+00  0.00000000e+00  0.00000000e+00
  0.00000000e+00  0.00000000e+00  0.00000000e+00  0.00000000e+00  0.00000000e+00
  0.00000000e+00  0.00000000e+00  0.00000000e+00  0.00000000e+00  0.00000000e+00
  0.00000000e+00  0.00000000e+00  0.00000000e+00  0.00000000e+00  0.00000000e+00
  0.00000000e+00  0.00000000e+00  0.00000000e+00  0.00000000e+00  0.00000000e+00
  0.00000000e+00  0.00000000e+00  0.00000000e+00  0.00000000e+00  0.00000000e+00
  0.00000000e+00  0.00000000e+00  0.00000000e+00  0.00000000e+00  0.00000000e+00
  0.00000000e+00  0.00000000e+00  0.00000000e+00  0.00000000e+00  0.00000000e+00
  0.00000000e+00  0.00000000e+00  0.00000000e+00  0.00000000e+00  0.00000000e+00
  0.00000000e+00  0.00000000e+00  0.00000000e+00  0.00000000e+00  0.00000000e+00
  0.00000000e+00  0.00000000e+00  0.00000000e+00  0.00000000e+00  0.00000000e+00
  0.00000000e+00  0.00000000e+00  0.00000000e+00  0.00000000e+00  0.00000000e+00
  0.00000000e+00  0.00000000e+00  0.00000000e+00  0.00000000e+00  0.00000000e+00
  0.00000000e+00  0.00000000e+00  0.00000000e+00  0.00000000e+00  0.00000000e+00
  0.00000000e+00  0.00000000e+00  0.00000000e+00  0.00000000e+00  0.00000000e+00
  0.00000000e+00  0.00000000e+00
Coordinates of each shell                  R   N=         282
  7.06703143e+00  1.08730911e+01  7.85439933e+00  7.06703143e+00  1.08730911e+01
  7.85439933e+00  7.06703143e+00  1.08730911e+01  7.85439933e+00  7.06703143e+00
  1.08730911e+01  7.85439933e+00  7.06703143e+00  1.08730911e+01  7.85439933e+00
  7.06703143e+00  1.08730911e+01  7.85439933e+00  7.06703143e+00  1.08730911e+01
  7.85439933e+00  7.06703143e+00  1.08730911e+01  7.85439933e+00  7.06703143e+00
  1.08730911e+01  7.85439933e+00  7.06703143e+00  1.08730911e+01  7.85439933e+00
  7.06703143e+00  1.08730911e+01  7.85439933e+00  7.18948812e+00  1.03804322e+01
  5.86303540e+00  7.18948812e+00  1.03804322e+01  5.86303540e+00  7.18948812e+00
  1.03804322e+01  5.86303540e+00  7.18948812e+00  1.03804322e+01  5.86303540e+00
  4.37703329e+00  1.18509953e+01  8.32551954e+00  4.37703329e+00  1.18509953e+01
  8.32551954e+00  4.37703329e+00  1.18509953e+01  8.32551954e+00  4.37703329e+00
  1.18509953e+01  8.32551954e+00  4.37703329e+00  1.18509953e+01  8.32551954e+00
  4.37703329e+00  1.18509953e+01  8.32551954e+00  4.37703329e+00  1.18509953e+01
  8.32551954e+00  4.37703329e+00  1.18509953e+01  8.32551954e+00  4.37703329e+00
  1.18509953e+01  8.32551954e+00  4.37703329e+00  1.18509953e+01  8.32551954e+00
  4.37703329e+00  1.18509953e+01  8.32551954e+00  4.10574631e+00  1.37819799e+01
  9.64915404e+00  4.10574631e+00  1.37819799e+01  9.64915404e+00  4.10574631e+00
  1.37819799e+01  9.64915404e+00  4.10574631e+00  1.37819799e+01  9.64915404e+00
  4.10574631e+00  1.37819799e+01  9.64915404e+00  4.10574631e+00  1.37819799e+01
  9.64915404e+00  4.10574631e+00  1.37819799e+01  9.64915404e+00  4.10574631e+00
  1.37819799e+01  9.64915404e+00  4.10574631e+00  1.37819799e+01  9.64915404e+00
  4.10574631e+00  1.37819799e+01  9.64915404e+00  4.10574631e+00  1.37819799e+01
  9.64915404e+00  2.61569242e+00  1.05875601e+01  7.32207059e+00  2.61569242e+00
  1.05875601e+01  7.32207059e+00  2.61569242e+00  1.05875601e+01  7.32207059e+00
  2.61569242e+00  1.05875601e+01  7.32207059e+00  2.61569242e+00  1.05875601e+01
  7.32207059e+00  2.61569242e+00  1.05875601e+01  7.32207059e+00  2.61569242e+00
  1.05875601e+01  7.32207059e+00  2.61569242e+00  1.05875601e+01  7.32207059e+00
  2.61569242e+00  1.05875601e+01  7.32207059e+00  2.61569242e+00  1.05875601e+01
  7.32207059e+00  2.61569242e+00  1.05875601e+01  7.32207059e+00  8.93704030e+00
  1.29010124e+01  8.40179836e+00  8.93704030e+00  1.29010124e+01  8.40179836e+00
  8.93704030e+00  1.29010124e+01  8.40179836e+00  8.93704030e+00  1.29010124e+01
  8.40179836e+00  8.93704030e+00  1.29010124e+01  8.40179836e+00  8.93704030e+00
  1.29010124e+01  8.40179836e+00  8.93704030e+00  1.29010124e+01  8.40179836e+00
  8.93704030e+00  1.29010124e+01  8.40179836e+00  8.93704030e+00  1.29010124e+01
  8.40179836e+00  8.93704030e+00  1.29010124e+01  8.40179836e+00  8.93704030e+00
  1.29010124e+01  8.40179836e+00  7.62470730e+00  8.56278386e+00  9.48732239e+00
  7.62470730e+00  8.56278386e+00  9.48732239e+00  7.62470730e+00  8.56278386e+00
  9.48732239e+00  7.62470730e+00  8.56278386e+00  9.48732239e+00  7.62470730e+00
  8.56278386e+00  9.48732239e+00  7.62470730e+00  8.56278386e+00  9.48732239e+00
  7.62470730e+00  8.56278386e+00  9.48732239e+00  7.62470730e+00  8.56278386e+00
  9.48732239e+00  7.62470730e+00  8.56278386e+00  9.48732239e+00  7.62470730e+00
  8.56278386e+00  9.48732239e+00  7.62470730e+00  8.56278386e+00  9.48732239e+00
  9.45958785e+00  7.76201665e+00  9.04889310e+00  9.45958785e+00  7.76201665e+00
  9.04889310e+00  9.45958785e+00  7.76201665e+00  9.04889310e+00  9.45958785e+00
  7.76201665e+00  9.04889310e+00  6.22438932e+00  7.11255164e+00  9.15090732e+00
  6.22438932e+00  7.11255164e+00  9.15090732e+00  6.22438932e+00  7.11255164e+00
  9.15090732e+00  6.22438932e+00  7.11255164e+00  9.15090732e+00  7.59143935e+00
  9.05825085e+00  1.14789182e+01  7.59143935e+00  9.05825085e+00  1.14789182e+01
  7.59143935e+00  9.05825085e+00  1.14789182e+01  7.59143935e+00  9.05825085e+00
  1.14789182e+01  8.73316469e+00  1.35381216e+01  1.02074500e+01  8.73316469e+00
  1.35381216e+01  1.02074500e+01  8.73316469e+00  1.35381216e+01  1.02074500e+01
  8.73316469e+00  1.35381216e+01  1.02074500e+01  8.63489292e+00  1.43716878e+01
  7.16951296e+00  8.63489292e+00  1.43716878e+01  7.16951296e+00  8.63489292e+00
  1.43716878e+01  7.16951296e+00  8.63489292e+00  1.43716878e+01  7.16951296e+00
  1.07237699e+01  1.22204333e+01  8.14027100e+00  1.07237699e+01  1.22204333e+01
  8.14027100e+00  1.07237699e+01  1.22204333e+01  8.14027100e+00  1.07237699e+01
  1.22204333e+01  8.14027100e+00
Virial ratio                               R      2.004186038374153E+00
SCF Energy                                 R     -3.236637674154380E+02
Alpha Orbital Energies                     R   N=         228
 -1.88688645e+01 -1.88528951e+01 -1.43246849e+01 -1.01082995e+01 -1.00894543e+01
 -1.00568482e+01 -1.01700252e+00 -9.55712713e-01 -8.65339141e-01 -7.64264541e-01
 -6.50938665e-01 -6.01326501e-01 -5.89078900e-01 -5.11448695e-01 -4.63485281e-01
 -4.09903688e-01 -3.90514380e-01 -3.79971010e-01 -3.56356736e-01 -3.26921483e-01
 -3.13243255e-01 -1.89445544e-01 -1.88233863e-01 -1.65458269e-01 -3.86636848e-02
  1.56496639e-02  3.01156544e-02  3.27681543e-02  6.62598632e-02  8.22036941e-02
  9.32675846e-02  1.16127798e-01  1.25769945e-01  1.41220281e-01  1.69826606e-01
  1.88295507e-01  1.97222071e-01  2.21372483e-01  2.29464303e-01  2.71084602e-01
  2.75901668e-01  3.02519367e-01  3.21132308e-01  3.39643331e-01  3.60412917e-01
  3.78830627e-01  3.86947616e-01  4.06896088e-01  4.13797632e-01  4.22962173e-01
  4.42103588e-01  4.46022091e-01  4.52604017e-01  4.62147913e-01  4.76020247e-01
  4.86045749e-01  5.31319779e-01  5.34596514e-01  5.64213632e-01  5.71725857e-01
  5.84530564e-01  6.25720779e-01  6.37320549e-01  6.58311593e-01  6.86093021e-01
  7.21202154e-01  7.75936395e-01  7.83803117e-01  8.04984945e-01  8.45126309e-01
  8.65943982e-01  8.97227299e-01  9.28014690e-01  9.91465844e-01  1.00907703e+00
  1.02289113e+00  1.04708435e+00  1.07216835e+00  1.10302950e+00  1.13568584e+00
  1.14711254e+00  1.20351769e+00  1.25260547e+00  1.26849337e+00  1.29913541e+00
  1.34385605e+00  1.36224526e+00  1.42965865e+00  1.45917758e+00  1.47906789e+00
  1.50689528e+00  1.51773208e+00  1.54296472e+00  1.56319402e+00  1.57607999e+00
  1.60609338e+00  1.61619493e+00  1.64284758e+00  1.67393506e+00  1.72244698e+00
  1.73025973e+00  1.75486792e+00  1.76119135e+00  1.77584068e+00  1.86716475e+00
  1.87375397e+00  1.90579349e+00  1.93466059e+00  1.95953427e+00  2.00101379e+00
  2.05773634e+00  2.07637976e+00  2.10309172e+00  2.13868945e+00  2.15751997e+00
  2.17944449e+00  2.23491738e+00  2.24596990e+00  2.27588969e+00  2.28986317e+00
  2.35134345e+00  2.35414635e+00  2.35810583e+00  2.39192507e+00  2.41450671e+00
  2.43426653e+00  2.44209672e+00  2.49032661e+00  2.55249161e+00  2.57730721e+00
  2.59070264e+00  2.63625669e+00  2.65219659e+00  2.67943666e+00  2.72335744e+00
  2.74058445e+00  2.78476229e+00  2.84489666e+00  2.84873712e+00  2.85949514e+00
  2.88424791e+00  2.93390374e+00  2.98061304e+00  3.00037749e+00  3.03589053e+00
  3.07386532e+00  3.09132052e+00  3.12430581e+00  3.14962138e+00  3.17259340e+00
  3.20236147e+00  3.21794182e+00  3.25042763e+00  3.29929653e+00  3.33832077e+00
  3.35549991e+00  3.39025475e+00  3.41122723e+00  3.42818494e+00  3.47023753e+00
  3.47618897e+00  3.52172007e+00  3.53138425e+00  3.59940826e+00  3.63364017e+00
  3.64121896e+00  3.69894763e+00  3.72437093e+00  3.80592494e+00  3.82516985e+00
  3.89698613e+00  3.92230482e+00  3.95039075e+00  4.00794230e+00  4.09331220e+00
  4.11615303e+00  4.18329448e+00  4.24863857e+00  4.35135262e+00  4.39140508e+00
  4.45349366e+00  4.50979696e+00  4.52500965e+00  4.59209851e+00  4.61568792e+00
  4.74529205e+00  4.79610071e+00  4.84342492e+00  4.85072832e+00  4.92730879e+00
  4.94682500e+00  5.01462676e+00  5.09156649e+00  5.21134592e+00  5.29500464e+00
  5.32164859e+00  5.34723938e+00  5.35417151e+00  5.36841682e+00  5.47638183e+00
  5.50941258e+00  5.52618273e+00  5.70902298e+00  5.73673737e+00  5.78918452e+00
  5.90408850e+00  5.98555421e+00  6.22709042e+00  6.23802300e+00  6.31377602e+00
  6.47321367e+00  6.54273949e+00  6.56627403e+00  6.60205514e+00  6.63973977e+00
  6.89425947e+00  6.95513988e+00  7.04618806e+00  7.10733006e+00  7.29435088e+00
  7.31774020e+00  7.43953186e+00  2.23668522e+01  2.25190958e+01  2.35250657e+01
  3.19020319e+01  4.39595535e+01  4.39772054e+01
Alpha MO coefficients                      R   N=       51984
 -9.17655242e-06  4.60699671e-05 -7.18921430e-05 -2.57050429e-03  1.26554382e-03
  6.51496090e-05 -1.13965654e-04 -2.74137569e-05  1.97007009e-03 -2.00581046e-04
 -4.73271962e-04 -1.63303452e-03 -2.22442821e-03 -4.52784185e-04  5.51821591e-05
  1.72278874e-05 -1.00638145e-04 -8.00874690e-05  3.15954780e-05  5.77882565e-05
  4.22436831e-04  7.20215867e-04 -2.32817509e-04  1.02632338e-03 -2.85709089e-05
 -4.39238471e-05 -1.51343184e-05 -8.19006470e-05 -2.44071396e-05  3.44721397e-05
 -4.49236437e-05 -1.29994957e-05 -1.82326674e-04 -2.91069587e-06  1.70149122e-05
  1.58147368e-04 -4.77099389e-05 -3.53540677e-05  1.94711323e-04 -2.26282285e-04
 -3.48732351e-03  3.88206907e-03 -2.84258783e-06 -3.44643903e-04 -2.52647412e-04
  1.94940818e-03 -5.34844895e-03 -3.61620776e-03  9.62244801e-04  4.37869197e-03
  3.43825146e-03  5.46930975e-05  4.85537036e-05 -3.17693537e-04  1.73081077e-04
  1.28617557e-04 -5.56170502e-04  1.25627866e-04 -2.79721629e-03  3.02766998e-03
 -1.42054904e-04  2.25946082e-04 -4.99577444e-05 -1.54731221e-05  6.31376827e-05
  1.77235453e-05 -7.82969337e-06 -1.49743511e-04 -4.35531399e-01 -6.39124199e-01
 -3.54288758e-02  2.73093157e-02 -1.19706784e-02 -4.20881860e-04  1.47328337e-03
  9.98447471e-04  9.57973618e-04 -4.31915077e-03 -2.91884920e-03 -5.78652803e-04
  9.92443796e-04  5.47710546e-04  3.19978546e-05  1.38954302e-05 -1.71507469e-04
  6.99041383e-05  3.12450015e-05  4.34386772e-06 -1.83106983e-04  9.59016490e-04
 -7.43656297e-04 -2.58873174e-04  6.24134723e-05  1.05685464e-05 -4.60915868e-05
  1.15599311e-04  3.72632491e-05 -3.35142208e-05  6.51185043e-05 -4.81269930e-06
 -1.22774830e-05  1.42143598e-04 -1.09741758e-03  2.20228859e-03 -9.47350451e-05
 -2.43525239e-05 -3.39435088e-05  2.91965213e-04 -2.65776942e-04 -1.18414495e-04
  4.96248619e-04 -4.13446239e-04 -3.42929459e-04  4.51145928e-05 -8.54003020e-06
 -4.21849014e-05 -4.52612408e-05  5.80772613e-06 -1.87375524e-04 -1.14671742e-05
  7.01916170e-05  2.66922358e-04 -9.40164552e-05 -3.93058180e-05 -3.09845831e-05
  2.16481674e-05 -3.76219133e-05  1.65195560e-05  3.42139441e-05 -1.64012082e-05
  3.27210373e-06 -2.01176658e-05  2.90789015e-04 -1.59373729e-03  3.01843288e-03
 -2.45059862e-05 -5.21302685e-05  3.47561659e-06  6.46836369e-04  5.01534495e-04
 -6.07824496e-05 -5.32974386e-04 -3.29176922e-04 -2.98736229e-04  1.83564591e-05
 -9.20678282e-06 -1.07175624e-05 -5.03192369e-05  2.51769985e-05 -2.99074204e-05
  5.30837056e-05 -1.33267421e-05  2.23950031e-04 -3.24262809e-04  5.05970160e-06
 -3.32265604e-05 -6.91506837e-06 -9.22286155e-06  5.74141932e-06  6.99380303e-06
  2.64013931e-06  2.41191431e-06 -1.19099021e-05  9.17838904e-05  6.41912628e-04
 -3.33391516e-03 -3.47429716e-05  7.36662989e-05 -1.89263071e-06  9.12513937e-06
  3.48191543e-04 -3.39591891e-04  1.13918240e-03 -3.30367287e-04  8.39714565e-04
 -2.55756391e-05  2.33646474e-05  2.58005459e-06 -2.93275740e-05 -6.27543403e-05
 -7.79633895e-06 -1.18602916e-04 -2.24253717e-04 -1.13653885e-05  5.54058984e-05
 -2.08576917e-05  2.15281192e-05  1.22192656e-06  1.97554339e-05  8.68558803e-06
  1.02453010e-05  2.21831979e-05 -2.54881602e-05  1.72618985e-04 -6.77494203e-05
 -3.78652552e-05 -2.53892382e-05 -3.20349173e-07 -6.19776309e-05  4.41385331e-04
  1.05612280e-03  6.60681636e-06  9.36454348e-05 -2.81633931e-05 -4.53808280e-06
  3.95116364e-04 -3.26733695e-04  1.50081787e-05 -1.68961733e-05 -5.72998859e-05
  3.49063112e-05 -1.81744057e-04 -1.33672747e-04  1.39287030e-05 -2.03111183e-05
 -3.07531106e-05  4.09800055e-05 -4.23359327e-04 -4.13563094e-04  1.28165731e-04
  4.18642459e-05 -4.81468093e-05 -4.00935161e-05 -4.87890940e-04  3.02247342e-04
  1.03913964e-04 -7.06484568e-05 -2.71047298e-05  8.49403128e-06 -4.20224578e-05
 -2.42873345e-04  4.44630829e-03 -4.92429143e-03 -6.09691418e-05  1.00842995e-04
 -2.12192777e-05 -2.24729199e-03 -4.22891300e-04  3.93967585e-04 -1.34932083e-03
 -2.23702393e-06 -2.96855120e-03 -4.35217184e-05  4.56627193e-06  7.03657657e-05
  7.34726506e-05 -2.89810880e-06 -4.26076609e-05 -5.14616944e-04 -6.71817712e-04
  2.50006441e-04 -1.10408652e-03 -4.75996029e-05  3.87313175e-05 -4.06191453e-05
  8.37948061e-05 -2.02440824e-05  6.73861917e-05  1.35102909e-04  2.85798796e-05
 -3.80762402e-04 -5.88353091e-05 -9.57935870e-05 -1.03281712e-04 -7.66294121e-05
  3.72784645e-05 -2.03520390e-04  1.88202153e-04  3.03416701e-03 -4.27408968e-03
 -2.29830410e-04 -2.11521019e-04 -1.98166725e-04 -6.09507828e-03 -3.13836819e-03
 -2.40893352e-03  3.13159284e-03  4.59495315e-03  3.15035624e-03 -1.31996833e-04
  2.07206311e-04  1.79092839e-04  1.32366059e-04  2.28607783e-04 -2.28399404e-04
  2.48372579e-03  1.14852009e-03  3.84389502e-05  3.47740291e-03  2.10120440e-04
  1.85792469e-04 -4.64341510e-05  6.46476441e-05 -1.24535818e-04 -1.87957064e-04
 -3.88098690e-05 -5.95000472e-06 -2.99872080e-06 -1.60477146e-04  1.27586685e-03
 -2.10681652e-03  6.26417898e-05 -7.57174205e-05 -3.82305039e-05 -5.19188507e-04
 -9.04344432e-05 -1.44715155e-04 -5.83181198e-04 -3.00259812e-04 -1.10156813e-04
 -3.27355514e-05 -1.04730733e-05  4.75855125e-05  2.03878849e-05 -2.68873369e-05
  1.49714778e-04  1.20374380e-04 -8.56255986e-05 -1.61104378e-04  2.20786063e-04
 -6.19724349e-05  5.45408140e-06 -1.79902873e-06 -9.44655810e-06  3.74049432e-06
  6.53391922e-06  4.54647600e-05  4.35541868e-01  6.39134984e-01  3.54044326e-02
 -2.74113351e-02  1.21275528e-02  1.42085109e-03  8.93715597e-04  7.34281740e-04
 -4.13086087e-03 -2.74743978e-03 -2.23749847e-03  1.02234947e-03  3.29754064e-04
  3.57051044e-04 -6.26050581e-05  7.08237984e-05  1.13661806e-04  4.76725321e-05
  8.64429348e-05  2.74390618e-04 -7.25671805e-04 -4.68471704e-04 -3.04179567e-04
 -9.02842524e-04  7.32410139e-05 -1.49623410e-06  2.34662216e-06 -3.55124122e-05
 -1.12936026e-04  3.79941535e-05 -9.19148355e-05 -9.17612089e-07  5.96204673e-06
 -1.67173448e-04  1.18045272e-03  3.21327949e-04  2.04563008e-05  4.02783545e-05
 -8.83070791e-06 -5.45825201e-04 -4.97624885e-04 -1.11232309e-04  8.19138384e-04
 -4.18113661e-04  2.21831334e-05 -1.05081943e-05  1.30583488e-05  1.33540639e-05