fchk produced by OCC                                                    
SP         r2scan                                              def2-tzvp
Number of atoms                            I               13
Charge                                     I                0
Multiplicity                               I                1
Number of electrons                        I               48
Number of alpha electrons                  I               24
Number of beta electrons                   I               24
Number of basis functions                  I              258
Number of independent functions            I              258
Number of point charges in /Mol/           I                0
Number of translation vectors              I                0
Atomic numbers                             I   N=          13
           6           1           6           8           8           7
           6           1           1           1           1           1
           1
Nuclear charges                            R   N=          13
  6.00000000e+00  1.00000000e+00  6.00000000e+00  8.00000000e+00  8.00000000e+00
  7.00000000e+00  6.00000000e+00  1.00000000e+00  1.00000000e+00  1.00000000e+00
  1.00000000e+00  1.00000000e+00  1.00000000e+00
Current cartesian coordinates              R   N=          39
  7.06703143e+00  1.08730911e+01  7.85439933e+00  7.18948812e+00  1.03804322e+01
  5.86303540e+00  4.37703329e+00  1.18509953e+01  8.32551954e+00  4.10574631e+00
  1.37819799e+01  9.64915404e+00  2.61569242e+00  1.05875601e+01  7.32207059e+00
  8.93704030e+00  1.29010124e+01  8.40179836e+00  7.62470730e+00  8.56278386e+00
  9.48732239e+00  9.45958785e+00  7.76201665e+00  9.04889310e+00  6.22438932e+00
  7.11255164e+00  9.15090732e+00  7.59143935e+00  9.05825085e+00  1.14789182e+01
  8.73316469e+00  1.35381216e+01  1.02074500e+01  8.63489292e+00  1.43716878e+01
  7.16951296e+00  1.07237699e+01  1.22204333e+01  8.14027100e+00
Force Field                                I                0
Int Atom Types                             I   N=          13
           0           0           0           0           0           0
           0           0           0           0           0           0
           0
MM Charges                                 R   N=          13
  0.00000000e+00  0.00000000e+00  0.00000000e+00  0.00000000e+00  0.00000000e+00
  0.00000000e+00  0.00000000e+00  0.00000000e+00  0.00000000e+00  0.00000000e+00
  0.00000000e+00  0.00000000e+00  0.00000000e+00
Integer atomic weights                     I   N=          13
          12           1          12          16          16          14
          12           1           1           1           1           1
           1
Real atomic weights                        R   N=          13
  1.20107002e+01  1.00794005e+00  1.20107002e+01  1.59994001e+01  1.59994001e+01
  1.40066996e+01  1.20107002e+01  1.00794005e+00  1.00794005e+00  1.00794005e+00
  1.00794005e+00  1.00794005e+00  1.00794005e+00
Atom residue num                           I   N=          13
           0           0           0           0           0           0
           0           0           0           0           0           0
           0
Number of contracted shells                I               94
Number of primitive shells                 I              162
Pure/Cartesian d shells                    I                1
Pure/Cartesian f shells                    I                1
Highest angular momentum                   I                3
Largest degree of contraction              I                6
Shell types                                I   N=          94
           0           0           0           0           0           1
           1           1           2           2           3           0
           0           0           1           0           0           0
           0           0           1           1           1           2
           2           3           0           0           0           0
           0           1           1           1           2           2
           3           0           0           0           0           0
           1           1           1           2           2           3
           0           0           0           0           0           1
           1           1           2           2           3           0
           0           0           0           0           1           1
           1           2           2           3           0           0
           0           1           0           0           0           1
           0           0           0           1           0           0
           0           1           0           0           0           1
           0           0           0           1
Number of primitives per shell             I   N=          94
           6           2           1           1           1           4
           1           1           1           1           1           3
           1           1           1           6           2           1
           1           1           4           1           1           1
           1           1           6           2           1           1
           1           4           1           1           1           1
           1           6           2           1           1           1
           4           1           1           1           1           1
           6           2           1           1           1           4
           1           1           1           1           1           6
           2           1           1           1           4           1
           1           1           1           1           3           1
           1           1           3           1           1           1
           3           1           1           1           3           1
           1           1           3           1           1           1
           3           1           1           1
Shell to atom map                          I   N=          94
           1           1           1           1           1           1
           1           1           1           1           1           2
           2           2           2           3           3           3
           3           3           3           3           3           3
           3           3           4           4           4           4
           4           4           4           4           4           4
           4           5           5           5           5           5
           5           5           5           5           5           5
           6           6           6           6           6           6
           6           6           6           6           6           7
           7           7           7           7           7           7
           7           7           7           7           8           8
           8           8           9           9           9           9
          10          10          10          10          11          11
          11          11          12          12          12          12
          13          13          13          13
Primitive exponents                        R   N=         162
  1.35753497e+04  2.03523337e+03  4.63225624e+02  1.31200196e+02  4.28530159e+01
  1.55841858e+01  6.20671385e+00  2.57648965e+00  5.76963394e-01  2.29728314e-01
  9.51644400e-02  3.46972322e+01  7.95826228e+00  2.37808269e+00  8.14332082e-01
  2.88875473e-01  1.00568237e-01  1.09700000e+00  3.18000000e-01  7.61000000e-01
  3.40613410e+01  5.12357460e+00  1.16466260e+00  3.27230410e-01  1.03072410e-01
  8.00000000e-01  1.35753497e+04  2.03523337e+03  4.63225624e+02  1.31200196e+02
  4.28530159e+01  1.55841858e+01  6.20671385e+00  2.57648965e+00  5.76963394e-01
  2.29728314e-01  9.51644400e-02  3.46972322e+01  7.95826228e+00  2.37808269e+00
  8.14332082e-01  2.88875473e-01  1.00568237e-01  1.09700000e+00  3.18000000e-01
  7.61000000e-01  2.70323826e+04  4.05238714e+03  9.22327227e+02  2.61240710e+02
  8.53546414e+01  3.10350352e+01  1.22608607e+01  4.99870760e+00  1.17031082e+00
  4.64747410e-01  1.85045364e-01  6.32749548e+01  1.46270494e+01  4.45012235e+00
  1.52757996e+00  5.29351179e-01  1.74784213e-01  2.31400000e+00  6.45000000e-01
  1.42800000e+00  2.70323826e+04  4.05238714e+03  9.22327227e+02  2.61240710e+02
  8.53546414e+01  3.10350352e+01  1.22608607e+01  4.99870760e+00  1.17031082e+00
  4.64747410e-01  1.85045364e-01  6.32749548e+01  1.46270494e+01  4.45012235e+00
  1.52757996e+00  5.29351179e-01  1.74784213e-01  2.31400000e+00  6.45000000e-01
  1.42800000e+00  1.97308006e+04  2.95789587e+03  6.73221336e+02  1.90682495e+02
  6.22954419e+01  2.26541612e+01  8.97914774e+00  3.68630024e+00  8.46600768e-01
  3.36471338e-01  1.36476537e-01  4.92003805e+01  1.13467905e+01  3.42739724e+00
  1.17855251e+00  4.16422050e-01  1.42608260e-01  1.65400000e+00  4.69000000e-01
  1.09300000e+00  1.35753497e+04  2.03523337e+03  4.63225624e+02  1.31200196e+02
  4.28530159e+01  1.55841858e+01  6.20671385e+00  2.57648965e+00  5.76963394e-01
  2.29728314e-01  9.51644400e-02  3.46972322e+01  7.95826228e+00  2.37808269e+00
  8.14332082e-01  2.88875473e-01  1.00568237e-01  1.09700000e+00  3.18000000e-01
  7.61000000e-01  3.40613410e+01  5.12357460e+00  1.16466260e+00  3.27230410e-01
  1.03072410e-01  8.00000000e-01  3.40613410e+01  5.12357460e+00  1.16466260e+00
  3.27230410e-01  1.03072410e-01  8.00000000e-01  3.40613410e+01  5.12357460e+00
  1.16466260e+00  3.27230410e-01  1.03072410e-01  8.00000000e-01  3.40613410e+01
  5.12357460e+00  1.16466260e+00  3.27230410e-01  1.03072410e-01  8.00000000e-01
  3.40613410e+01  5.12357460e+00  1.16466260e+00  3.27230410e-01  1.03072410e-01
  8.00000000e-01  3.40613410e+01  5.12357460e+00  1.16466260e+00  3.27230410e-01
  1.03072410e-01  8.00000000e-01
Contraction coefficients                   R   N=         162
  6.06455036e-04  4.69790889e-03  2.43324776e-02  9.73999683e-02  3.01955843e-01
  6.62336091e-01  6.55953085e-01  3.75856333e-01  1.00000000e+00  1.00000000e+00
  1.00000000e+00  1.13272200e-02  7.61696592e-02  3.01922522e-01  7.27850273e-01
  1.00000000e+00  1.00000000e+00  1.00000000e+00  1.00000000e+00  1.00000000e+00
  2.54393072e-02  1.90085949e-01  8.52441130e-01  1.00000000e+00  1.00000000e+00
  1.00000000e+00  6.06455036e-04  4.69790889e-03  2.43324776e-02  9.73999683e-02
  3.01955843e-01  6.62336091e-01  6.55953085e-01  3.75856333e-01  1.00000000e+00
  1.00000000e+00  1.00000000e+00  1.13272200e-02  7.61696592e-02  3.01922522e-01
  7.27850273e-01  1.00000000e+00  1.00000000e+00  1.00000000e+00  1.00000000e+00
  1.00000000e+00  5.72273352e-04  4.43532335e-03  2.30201077e-02  9.28224907e-02
  2.93785000e-01  6.74016045e-01  6.38399370e-01  3.95345871e-01  1.00000000e+00
  1.00000000e+00  1.00000000e+00  1.20183322e-02  8.30054218e-02  3.19917439e-01
  7.07155429e-01  1.00000000e+00  1.00000000e+00  1.00000000e+00  1.00000000e+00
  1.00000000e+00  5.72273352e-04  4.43532335e-03  2.30201077e-02  9.28224907e-02
  2.93785000e-01  6.74016045e-01  6.38399370e-01  3.95345871e-01  1.00000000e+00
  1.00000000e+00  1.00000000e+00  1.20183322e-02  8.30054218e-02  3.19917439e-01
  7.07155429e-01  1.00000000e+00  1.00000000e+00  1.00000000e+00  1.00000000e+00
  1.00000000e+00  5.86264026e-04  4.54288206e-03  2.35584135e-02  9.47091933e-02
  2.97197849e-01  6.69162469e-01  6.45966836e-01  3.87005744e-01  1.00000000e+00
  1.00000000e+00  1.00000000e+00  1.14488251e-02  7.84223380e-02  3.08180947e-01
  7.20271964e-01  1.00000000e+00  1.00000000e+00  1.00000000e+00  1.00000000e+00
  1.00000000e+00  6.06455036e-04  4.69790889e-03  2.43324776e-02  9.73999683e-02
  3.01955843e-01  6.62336091e-01  6.55953085e-01  3.75856333e-01  1.00000000e+00
  1.00000000e+00  1.00000000e+00  1.13272200e-02  7.61696592e-02  3.01922522e-01
  7.27850273e-01  1.00000000e+00  1.00000000e+00  1.00000000e+00  1.00000000e+00
  1.00000000e+00  2.54393072e-02  1.90085949e-01  8.52441130e-01  1.00000000e+00
  1.00000000e+00  1.00000000e+00  2.54393072e-02  1.90085949e-01  8.52441130e-01
  1.00000000e+00  1.00000000e+00  1.00000000e+00  2.54393072e-02  1.90085949e-01
  8.52441130e-01  1.00000000e+00  1.00000000e+00  1.00000000e+00  2.54393072e-02
  1.90085949e-01  8.52441130e-01  1.00000000e+00  1.00000000e+00  1.00000000e+00
  2.54393072e-02  1.90085949e-01  8.52441130e-01  1.00000000e+00  1.00000000e+00
  1.00000000e+00  2.54393072e-02  1.90085949e-01  8.52441130e-01  1.00000000e+00
  1.00000000e+00  1.00000000e+00
P(S=P) Contraction coefficients            R   N=         162
  0.00000000e+00  0.00000000e+00  0.00000000e+00  0.00000000e+00  0.00000000e+00
  0.00000000e+00  0.00000000e+00  0.00000000e+00  0.00000000e+00  0.00000000e+00
  0.00000000e+00  0.00000000e+00  0.00000000e+00  0.00000000e+00  0.00000000e+00
  0.00000000e+00  0.00000000e+00  0.00000000e+00  0.00000000e+00  0.00000000e+00
  0.00000000e+00  0.00000000e+00  0.00000000e+00  0.00000000e+00  0.00000000e+00
  0.00000000e+00  0.00000000e+00  0.00000000e+00  0.00000000e+00  0.00000000e+00
  0.00000000e+00  0.00000000e+00  0.00000000e+00  0.00000000e+00  0.00000000e+00
  0.00000000e+00  0.00000000e+00  0.00000000e+00  0.00000000e+00  0.00000000e+00
  0.00000000e+00  0.00000000e+00  0.00000000e+00  0.00000000e+00  0.00000000e+00
  0.00000000e+00  0.00000000e+00  0.00000000e+00  0.00000000e+00  0.00000000e+00
  0.00000000e+00  0.00000000e+00  0.00000000e+00  0.00000000e+00  0.00000000e+00
  0.00000000e+00  0.00000000e+00  0.00000000e+00  0.00000000e+00  0.00000000e+00
  0.00000000e+00  0.00000000e+00  0.00000000e+00  0.00000000e+00  0.00000000e+00
  0.00000000e+00  0.00000000e+00  0.00000000e+00  0.00000000e+00  0.00000000e+00
  0.00000000e+00  0.00000000e+00  0.00000000e+00  0.00000000e+00  0.00000000e+00
  0.00000000e+00  0.00000000e+00  0.00000000e+00  0.00000000e+00  0.00000000e+00
  0.00000000e+00  0.00000000e+00  0.00000000e+00  0.00000000e+00  0.00000000e+00
  0.00000000e+00  0.00000000e+00  0.00000000e+00  0.00000000e+00  0.00000000e+00
  0.00000000e+00  0.00000000e+00  0.00000000e+00  0.00000000e+00  0.00000000e+00
  0.00000000e+00  0.00000000e+00  0.00000000e+00  0.00000000e+00  0.00000000e+00
  0.00000000e+00  0.00000000e+00  0.00000000e+00  0.00000000e+00  0.00000000e+00
  0.00000000e+00  0.00000000e+00  0.00000000e+00  0.00000000e+00  0.00000000e+00
  0.00000000e+00  0.00000000e+00  0.00000000e+00  0.00000000e+00  0.00000000e+00
  0.00000000e+00  0.00000000e+00  0.00000000e+00  0.00000000e+00  0.00000000e+00
  0.00000000e+00  0.00000000e+00  0.00000000e+00  0.00000000e+00  0.00000000e+00
  0.00000000e+00  0.00000000e+00  0.00000000e+00  0.00000000e+00  0.00000000e+00
  0.00000000e+00  0.00000000e+00  0.00000000e+00  0.00000000e+00  0.00000000e+00
  0.00000000e+00  0.00000000e+00  0.00000000e+00  0.00000000e+00  0.00000000e+00
  0.00000000e+00  0.00000000e+00  0.00000000e+00  0.00000000e+00  0.00000000e+00
  0.00000000e+00  0.00000000e+00  0.00000000e+00  0.00000000e+00  0.00000000e+00
  0.00000000e+00  0.00000000e+00  0.00000000e+00  0.00000000e+00  0.00000000e+00
  0.00000000e+00  0.00000000e+00  0.00000000e+00  0.00000000e+00  0.00000000e+00
  0.00000000e+00  0.00000000e+00
Coordinates of each shell                  R   N=         282
  7.06703143e+00  1.08730911e+01  7.85439933e+00  7.06703143e+00  1.08730911e+01
  7.85439933e+00  7.06703143e+00  1.08730911e+01  7.85439933e+00  7.06703143e+00
  1.08730911e+01  7.85439933e+00  7.06703143e+00  1.08730911e+01  7.85439933e+00
  7.06703143e+00  1.08730911e+01  7.85439933e+00  7.06703143e+00  1.08730911e+01
  7.85439933e+00  7.06703143e+00  1.08730911e+01  7.85439933e+00  7.06703143e+00
  1.08730911e+01  7.85439933e+00  7.06703143e+00  1.08730911e+01  7.85439933e+00
  7.06703143e+00  1.08730911e+01  7.85439933e+00  7.18948812e+00  1.03804322e+01
  5.86303540e+00  7.18948812e+00  1.03804322e+01  5.86303540e+00  7.18948812e+00
  1.03804322e+01  5.86303540e+00  7.18948812e+00  1.03804322e+01  5.86303540e+00
  4.37703329e+00  1.18509953e+01  8.32551954e+00  4.37703329e+00  1.18509953e+01
  8.32551954e+00  4.37703329e+00  1.18509953e+01  8.32551954e+00  4.37703329e+00
  1.18509953e+01  8.32551954e+00  4.37703329e+00  1.18509953e+01  8.32551954e+00
  4.37703329e+00  1.18509953e+01  8.32551954e+00  4.37703329e+00  1.18509953e+01
  8.32551954e+00  4.37703329e+00  1.18509953e+01  8.32551954e+00  4.37703329e+00
  1.18509953e+01  8.32551954e+00  4.37703329e+00  1.18509953e+01  8.32551954e+00
  4.37703329e+00  1.18509953e+01  8.32551954e+00  4.10574631e+00  1.37819799e+01
  9.64915404e+00  4.10574631e+00  1.37819799e+01  9.64915404e+00  4.10574631e+00
  1.37819799e+01  9.64915404e+00  4.10574631e+00  1.37819799e+01  9.64915404e+00
  4.10574631e+00  1.37819799e+01  9.64915404e+00  4.10574631e+00  1.37819799e+01
  9.64915404e+00  4.10574631e+00  1.37819799e+01  9.64915404e+00  4.10574631e+00
  1.37819799e+01  9.64915404e+00  4.10574631e+00  1.37819799e+01  9.64915404e+00
  4.10574631e+00  1.37819799e+01  9.64915404e+00  4.10574631e+00  1.37819799e+01
  9.64915404e+00  2.61569242e+00  1.05875601e+01  7.32207059e+00  2.61569242e+00
  1.05875601e+01  7.32207059e+00  2.61569242e+00  1.05875601e+01  7.32207059e+00
  2.61569242e+00  1.05875601e+01  7.32207059e+00  2.61569242e+00  1.05875601e+01
  7.32207059e+00  2.61569242e+00  1.05875601e+01  7.32207059e+00  2.61569242e+00
  1.05875601e+01  7.32207059e+00  2.61569242e+00  1.05875601e+01  7.32207059e+00
  2.61569242e+00  1.05875601e+01  7.32207059e+00  2.61569242e+00  1.05875601e+01
  7.32207059e+00  2.61569242e+00  1.05875601e+01  7.32207059e+00  8.93704030e+00
  1.29010124e+01  8.40179836e+00  8.93704030e+00  1.29010124e+01  8.40179836e+00
  8.93704030e+00  1.29010124e+01  8.40179836e+00  8.93704030e+00  1.29010124e+01
  8.40179836e+00  8.93704030e+00  1.29010124e+01  8.40179836e+00  8.93704030e+00
  1.29010124e+01  8.40179836e+00  8.93704030e+00  1.29010124e+01  8.40179836e+00
  8.93704030e+00  1.29010124e+01  8.40179836e+00  8.93704030e+00  1.29010124e+01
  8.40179836e+00  8.93704030e+00  1.29010124e+01  8.40179836e+00  8.93704030e+00
  1.29010124e+01  8.40179836e+00  7.62470730e+00  8.56278386e+00  9.48732239e+00
  7.62470730e+00  8.56278386e+00  9.48732239e+00  7.62470730e+00  8.56278386e+00
  9.48732239e+00  7.62470730e+00  8.56278386e+00  9.48732239e+00  7.62470730e+00
  8.56278386e+00  9.48732239e+00  7.62470730e+00  8.56278386e+00  9.48732239e+00
  7.62470730e+00  8.56278386e+00  9.48732239e+00  7.62470730e+00  8.56278386e+00
  9.48732239e+00  7.62470730e+00  8.56278386e+00  9.48732239e+00  7.62470730e+00
  8.56278386e+00  9.48732239e+00  7.62470730e+00  8.56278386e+00  9.48732239e+00
  9.45958785e+00  7.76201665e+00  9.04889310e+00  9.45958785e+00  7.76201665e+00
  9.04889310e+00  9.45958785e+00  7.76201665e+00  9.04889310e+00  9.45958785e+00
  7.76201665e+00  9.04889310e+00  6.22438932e+00  7.11255164e+00  9.15090732e+00
  6.22438932e+00  7.11255164e+00  9.15090732e+00  6.22438932e+00  7.11255164e+00
  9.15090732e+00  6.22438932e+00  7.11255164e+00  9.15090732e+00  7.59143935e+00
  9.05825085e+00  1.14789182e+01  7.59143935e+00  9.05825085e+00  1.14789182e+01
  7.59143935e+00  9.05825085e+00  1.14789182e+01  7.59143935e+00  9.05825085e+00
  1.14789182e+01  8.73316469e+00  1.35381216e+01  1.02074500e+01  8.73316469e+00
  1.35381216e+01  1.02074500e+01  8.73316469e+00  1.35381216e+01  1.02074500e+01
  8.73316469e+00  1.35381216e+01  1.02074500e+01  8.63489292e+00  1.43716878e+01
  7.16951296e+00  8.63489292e+00  1.43716878e+01  7.16951296e+00  8.63489292e+00
  1.43716878e+01  7.16951296e+00  8.63489292e+00  1.43716878e+01  7.16951296e+00
  1.07237699e+01  1.22204333e+01  8.14027100e+00  1.07237699e+01  1.22204333e+01
  8.14027100e+00  1.07237699e+01  1.22204333e+01  8.14027100e+00  1.07237699e+01
  1.22204333e+01  8.14027100e+00
Virial ratio                               R      2.009222099525350E+00
SCF Energy                                 R     -3.236667965576332E+02
Alpha Orbital Energies                     R   N=         258
 -1.88715468e+01 -1.88554523e+01 -1.43280088e+01 -1.01113362e+01 -1.00921144e+01
 -1.00597055e+01 -1.01696298e+00 -9.56147693e-01 -8.65787348e-01 -7.64344663e-01
 -6.51034981e-01 -6.01317967e-01 -5.89083682e-01 -5.11497465e-01 -4.63614933e-01
 -4.10066484e-01 -3.90642486e-01 -3.80159873e-01 -3.56664038e-01 -3.27341012e-01
 -3.13611860e-01 -1.89900813e-01 -1.88684674e-01 -1.65948442e-01 -3.96637237e-02
  1.49430514e-02  2.93785049e-02  3.20985794e-02  6.53234736e-02  8.14289851e-02
  9.25770331e-02  1.15604071e-01  1.24783596e-01  1.39956077e-01  1.68350653e-01
  1.83553341e-01  1.92678099e-01  2.17604854e-01  2.25012698e-01  2.63432624e-01
  2.70683840e-01  2.97584992e-01  3.14961342e-01  3.30528604e-01  3.53614924e-01
  3.68982264e-01  3.79749512e-01  3.95663127e-01  4.00735032e-01  4.18792055e-01
  4.30611440e-01  4.37491711e-01  4.43316116e-01  4.49211912e-01  4.69022148e-01
  4.77176907e-01  5.23243136e-01  5.25103767e-01  5.58793626e-01  5.67069947e-01
  5.71362953e-01  6.12468042e-01  6.27681991e-01  6.44262477e-01  6.72278502e-01
  7.02377349e-01  7.59736919e-01  7.66413761e-01  7.89460711e-01  8.29092973e-01
  8.48710873e-01  8.60877424e-01  9.04709124e-01  9.58342835e-01  9.68075718e-01
  9.98428698e-01  1.01711239e+00  1.04630519e+00  1.05649667e+00  1.09521074e+00
  1.12395051e+00  1.13411427e+00  1.17203069e+00  1.21339072e+00  1.24516113e+00
  1.24828631e+00  1.29067804e+00  1.30514501e+00  1.31776574e+00  1.33004375e+00
  1.38094207e+00  1.40764334e+00  1.43044752e+00  1.44865660e+00  1.45834356e+00
  1.50148013e+00  1.51342160e+00  1.54647082e+00  1.56223839e+00  1.57022371e+00
  1.59588964e+00  1.61252396e+00  1.64229753e+00  1.67641645e+00  1.72270076e+00
  1.81477503e+00  1.86391137e+00  1.87867026e+00  1.90489804e+00  1.94316603e+00
  1.97955940e+00  2.01193793e+00  2.02339519e+00  2.04758674e+00  2.05921874e+00
  2.07937254e+00  2.10546707e+00  2.10783750e+00  2.14389532e+00  2.16141375e+00
  2.19700331e+00  2.20280725e+00  2.21365685e+00  2.24556654e+00  2.27211068e+00
  2.29504083e+00  2.31632870e+00  2.36471075e+00  2.38110665e+00  2.42272090e+00
  2.46076476e+00  2.46678279e+00  2.51110970e+00  2.54361041e+00  2.57670799e+00
  2.59942741e+00  2.61646995e+00  2.66401506e+00  2.69512828e+00  2.70554529e+00
  2.72591722e+00  2.79118273e+00  2.83005883e+00  2.84779878e+00  2.87787350e+00
  2.90246316e+00  2.91019507e+00  2.93683340e+00  2.99080397e+00  2.99511606e+00
  3.08031463e+00  3.09845947e+00  3.12121950e+00  3.13125785e+00  3.15661681e+00
  3.17942409e+00  3.19513144e+00  3.20518421e+00  3.22579850e+00  3.24279064e+00
  3.27990860e+00  3.31464798e+00  3.31749868e+00  3.32357254e+00  3.36253049e+00
  3.40080542e+00  3.42432120e+00  3.44274632e+00  3.48197133e+00  3.50458507e+00
  3.54509570e+00  3.56843339e+00  3.63231077e+00  3.64116295e+00  3.64938822e+00
  3.67990512e+00  3.69577840e+00  3.72796235e+00  3.75236923e+00  3.83884283e+00
  3.85447741e+00  3.93268671e+00  4.02949488e+00  4.08061514e+00  4.11614584e+00
  4.21481365e+00  4.22969744e+00  4.29304118e+00  4.37487130e+00  4.43901878e+00
  4.50284292e+00  4.53351443e+00  4.61550649e+00  4.62063118e+00  4.64523054e+00
  4.68466131e+00  4.72027485e+00  4.74801213e+00  4.80261343e+00  4.83583111e+00
  4.87736467e+00  4.89002080e+00  4.93086776e+00  4.97064005e+00  5.02502339e+00
  5.03789117e+00  5.14539678e+00  5.21827139e+00  5.31949076e+00  5.33933810e+00
  5.35573006e+00  5.37596604e+00  5.45829575e+00  5.49641883e+00  5.54204142e+00
  5.58441502e+00  5.69129747e+00  5.72491761e+00  5.74746052e+00  5.83482803e+00
  5.96279214e+00  6.01015986e+00  6.01670378e+00  6.07706606e+00  6.08597899e+00
  6.16751051e+00  6.18423045e+00  6.20931863e+00  6.27423061e+00  6.31594604e+00
  6.38210007e+00  6.48567033e+00  6.58570841e+00  6.63021402e+00  6.66511602e+00
  6.75043639e+00  6.78847763e+00  7.06355616e+00  7.06717272e+00  7.09363004e+00
  7.14015877e+00  7.25778174e+00  7.48605250e+00  7.60325731e+00  7.94100922e+00
  8.08109586e+00  8.17672372e+00  8.51632153e+00  8.67499213e+00  1.21126498e+01
  1.70995648e+01  1.71192767e+01  3.47173639e+01  3.48812223e+01  3.50410334e+01
  5.17410218e+01  7.21614048e+01  7.22063551e+01
Alpha MO coefficients                      R   N=       66564
  1.81920217e-07 -8.63147755e-07  1.65419151e-04 -5.00782046e-04  2.81048226e-04
  6.55156353e-06 -2.97050882e-05  3.23579272e-06  1.12720468e-04  3.44330721e-04
 -8.47757384e-05 -1.66588913e-04 -1.72347350e-04 -1.31937202e-04 -2.58433699e-06
  6.57606252e-06  7.42588417e-06  5.53126204e-06  1.80297087e-06 -1.27073017e-05
  1.72763582e-04  1.02254521e-04  4.95889074e-05  1.67286783e-04  4.62126704e-05
  1.58679443e-04  2.42542302e-05 -4.99781010e-05 -7.32040573e-06  2.91085664e-05
 -1.94308899e-05  4.75664208e-06  1.45588355e-05 -2.36364944e-05 -5.58702542e-06
  1.54539621e-05 -1.06295509e-06 -1.58439519e-05 -7.46718456e-05 -1.21302712e-06
  1.46535352e-05 -4.24194936e-06 -5.70932739e-07 -1.35910241e-05  1.19295052e-03
 -3.28995673e-03  3.26521428e-04  9.50952033e-07 -9.88541455e-05 -6.99012544e-05
  3.25805754e-04 -8.15278761e-04 -5.35675610e-04 -4.04947471e-05  4.80134510e-04
  3.45669278e-04  3.10869124e-05 -2.32970591e-04 -8.19190778e-05  4.40308574e-05
  2.84673927e-05 -2.23553447e-04  8.53589846e-04  8.20204462e-05  4.37102162e-04
  1.57308755e-05  2.19217735e-05 -5.51778151e-04 -3.12690154e-05 -2.13237592e-04
 -3.70536910e-05  2.58128907e-05  1.96137282e-05  1.36729613e-05 -1.77495070e-06
 -1.54504927e-04 -2.61201624e-04  3.82494208e-05 -4.35647195e-01 -6.38405380e-01
 -7.58041547e-02  9.88907581e-02 -3.19826882e-03 -3.27146672e-04  1.03123196e-03
  7.02431939e-04  9.68750832e-05 -8.76466558e-04 -5.96798871e-04  7.02029172e-06
  1.70126155e-05  3.63616124e-06 -1.00404321e-03 -9.46349705e-04 -9.04590793e-04
 -7.11268802e-07 -9.10531800e-06 -6.73905988e-05 -2.27976852e-02 -2.24295741e-02
 -2.26557394e-02 -7.87549997e-05 -5.24275013e-05  3.37793628e-04  1.17842299e-04
 -3.50983330e-04 -2.04649221e-04  7.87495553e-05 -1.14406202e-04 -7.82284439e-05
  6.65378172e-05 -1.73590030e-04 -1.64108135e-04  1.92216535e-05  1.90552808e-06
  6.69686231e-06  6.38441236e-05 -1.60359156e-04  3.34632240e-04 -8.39865903e-06
  1.27997449e-06 -2.49711061e-07  1.09981170e-04  2.12178235e-05  2.88396999e-05
  1.01183149e-04 -2.92049458e-05 -2.20339759e-05 -5.87481622e-07  1.19510936e-05
  1.29906197e-05  9.94067624e-07 -2.27287740e-07 -1.21600676e-06  6.79583919e-05
  2.45919443e-05  2.28765605e-05  4.93502358e-06  6.42665478e-06  3.09440178e-06
 -3.22884234e-05 -1.55500624e-05 -1.21022261e-05 -5.23209706e-06  5.33776997e-06
  6.37327146e-07 -5.10191720e-06 -7.51428970e-06 -8.76678147e-06  1.91603943e-06
  8.70704288e-08 -8.92853801e-07 -1.23495295e-04  1.05212959e-04 -1.38437388e-05
 -1.50207571e-05 -1.62500412e-05 -1.93687883e-06  1.67790670e-04  1.97918266e-04
  4.37051615e-05  8.18601233e-06 -2.19413106e-05 -2.19487350e-05  3.28818245e-06
 -5.45137000e-06 -7.95014206e-06  2.61805184e-06 -3.40598812e-06  2.90458810e-06
 -1.33355051e-04 -1.12684620e-04 -4.74743503e-05 -5.14221464e-05  3.69362872e-06
 -1.51001769e-05 -3.45491310e-05 -2.67447624e-05  7.43082003e-07 -1.00691365e-05
 -5.92430168e-06 -3.00236209e-06 -1.83388289e-05 -1.23990978e-05 -1.96738702e-07
 -5.20191800e-07  1.54960246e-07 -1.31995877e-06 -8.93181440e-05  3.93319585e-04
 -1.66483258e-04 -2.77684100e-06  1.77543122e-06  1.31158583e-06 -7.06203660e-06
  1.40675484e-04 -1.29960276e-04  4.31413492e-05  3.95490992e-05  8.80620469e-05
 -6.12375599e-06 -6.07966035e-07 -4.37769183e-06 -3.94987326e-06  2.17357873e-06
 -3.96476630e-06 -6.18426719e-05  7.34723001e-07 -5.58596724e-05 -2.02473876e-05
  8.26054357e-07 -5.88960617e-05 -5.75906212e-06  9.51086445e-06  2.24210438e-06
 -1.17770543e-05 -2.78543724e-07  2.91466127e-06 -5.98766951e-07  2.90432624e-06
 -3.66974755e-06  2.93365085e-06 -2.59912632e-06 -1.36062744e-06  3.13781247e-05
 -1.35128951e-06 -3.37884012e-06  9.56951456e-07 -5.50346513e-06  2.87385438e-05
  7.46806221e-05 -1.44830611e-06  2.82970466e-06 -1.24749821e-07 -4.62134015e-07
  4.05715295e-05 -6.03228058e-05  2.20671627e-07 -4.05649082e-06 -6.86963385e-06
 -1.51428553e-07 -8.67426747e-06  5.58778786e-05 -1.41401196e-05  3.34179777e-06
  1.12147154e-05 -9.68988552e-06  6.77372913e-06  6.96655253e-07 -9.53121080e-06
  2.63586743e-06  2.69033744e-06  3.43530826e-06  2.97863486e-05 -3.86246317e-06
 -1.04645893e-05  4.51580123e-07 -9.64448749e-07  1.86695748e-07 -8.45541244e-07
  2.47950748e-04 -7.95032497e-04  4.40631379e-04  1.06269617e-07 -1.04360318e-05
 -3.57112421e-06  1.94725596e-04  9.43226878e-06  6.25507665e-05  3.85485870e-05
  3.75521292e-05  3.46500594e-04 -3.18794195e-06  8.53831444e-06  9.12391318e-06
 -5.35157367e-06 -2.34810398e-06 -8.30839574e-06  9.68905275e-05  1.48548271e-04
  1.29795377e-04  7.03755144e-05  1.24787973e-05  6.75094925e-05  2.69077643e-05
 -1.90972382e-05 -2.27007728e-06  1.57188790e-06 -3.13757084e-07  1.96817511e-06
  7.43893575e-06 -5.38347396e-06 -1.97269108e-05  9.64234381e-08  2.14774787e-06
  5.80661092e-05  9.30860716e-05 -9.44374004e-06  1.63762435e-05  8.11726760e-06
  9.57314123e-07 -2.48240437e-05  1.38985961e-03 -3.55794335e-03  3.91320115e-04
  6.32471431e-05  6.36010922e-05  5.02670631e-05  1.00356904e-03  3.63037625e-04
  2.98282705e-04 -4.18886677e-04 -3.87505540e-04 -3.09682357e-04 -1.94067499e-04
 -8.82406330e-05 -3.52698757e-05 -1.79505561e-04 -1.47224166e-04 -1.18565101e-04
  4.24774945e-04  5.18477321e-04  6.42771858e-04 -6.03942328e-04 -4.62472974e-04
 -3.19961496e-04  1.54654146e-04  5.34099173e-05  9.04991310e-06  1.21217312e-04
  2.20765028e-04  1.74395165e-04  5.05264082e-05  5.99613769e-05  8.17972739e-05
  1.69163999e-04 -2.73212689e-06  1.31078710e-06  9.31402696e-05 -1.91915759e-04
  3.30574718e-04 -1.16462074e-05  5.37481375e-06  2.66598596e-06  1.15780291e-04