fchk produced by OCC                                                    
SP         r2scan                                              def2-tzvp
Number of atoms                            I               13
Charge                                     I                0
Multiplicity                               I                1
Number of electrons                        I               48
Number of alpha electrons                  I               24
Number of beta electrons                   I               24
Number of basis functions                  I              228
Number of independent functions            I              228
Number of point charges in /Mol/           I                0
Number of translation vectors              I                0
Atomic numbers                             I   N=          13
           6           1           6           8           8           7
           6           1           1           1           1           1
           1
Nuclear charges                            R   N=          13
  6.00000000e+00  1.00000000e+00  6.00000000e+00  8.00000000e+00  8.00000000e+00
  7.00000000e+00  6.00000000e+00  1.00000000e+00  1.00000000e+00  1.00000000e+00
  1.00000000e+00  1.00000000e+00  1.00000000e+00
Current cartesian coordinates              R   N=          39
  7.06703143e+00  1.08730911e+01  7.85439933e+00  7.18948812e+00  1.03804322e+01
  5.86303540e+00  4.37703329e+00  1.18509953e+01  8.32551954e+00  4.10574631e+00
  1.37819799e+01  9.64915404e+00  2.61569242e+00  1.05875601e+01  7.32207058e+00
  8.93704030e+00  1.29010124e+01  8.40179835e+00  7.62470729e+00  8.56278386e+00
  9.48732239e+00  9.45958784e+00  7.76201665e+00  9.04889310e+00  6.22438932e+00
  7.11255164e+00  9.15090731e+00  7.59143935e+00  9.05825085e+00  1.14789182e+01
  8.73316468e+00  1.35381216e+01  1.02074500e+01  8.63489292e+00  1.43716878e+01
  7.16951296e+00  1.07237699e+01  1.22204333e+01  8.14027099e+00
Force Field                                I                0
Int Atom Types                             I   N=          13
           0           0           0           0           0           0
           0           0           0           0           0           0
           0
MM Charges                                 R   N=          13
  0.00000000e+00  0.00000000e+00  0.00000000e+00  0.00000000e+00  0.00000000e+00
  0.00000000e+00  0.00000000e+00  0.00000000e+00  0.00000000e+00  0.00000000e+00
  0.00000000e+00  0.00000000e+00  0.00000000e+00
Integer atomic weights                     I   N=          13
          12           1          12          16          16          14
          12           1           1           1           1           1
           1
Real atomic weights                        R   N=          13
  1.20107002e+01  1.00794005e+00  1.20107002e+01  1.59994001e+01  1.59994001e+01
  1.40066996e+01  1.20107002e+01  1.00794005e+00  1.00794005e+00  1.00794005e+00
  1.00794005e+00  1.00794005e+00  1.00794005e+00
Atom residue num                           I   N=          13
           0           0           0           0           0           0
           0           0           0           0           0           0
           0
Number of contracted shells                I               94
Number of primitive shells                 I              162
Pure/Cartesian d shells                    I                0
Pure/Cartesian f shells                    I                0
Highest angular momentum                   I                1
Largest degree of contraction              I                6
Shell types                                I   N=          94
           0           0           0           0           0           1
           1           1          -2          -2          -3           0
           0           0           1           0           0           0
           0           0           1           1           1          -2
          -2          -3           0           0           0           0
           0           1           1           1          -2          -2
          -3           0           0           0           0           0
           1           1           1          -2          -2          -3
           0           0           0           0           0           1
           1           1          -2          -2          -3           0
           0           0           0           0           1           1
           1          -2          -2          -3           0           0
           0           1           0           0           0           1
           0           0           0           1           0           0
           0           1           0           0           0           1
           0           0           0           1
Number of primitives per shell             I   N=          94
           6           2           1           1           1           4
           1           1           1           1           1           3
           1           1           1           6           2           1
           1           1           4           1           1           1
           1           1           6           2           1           1
           1           4           1           1           1           1
           1           6           2           1           1           1
           4           1           1           1           1           1
           6           2           1           1           1           4
           1           1           1           1           1           6
           2           1           1           1           4           1
           1           1           1           1           3           1
           1           1           3           1           1           1
           3           1           1           1           3           1
           1           1           3           1           1           1
           3           1           1           1
Shell to atom map                          I   N=          94
           1           1           1           1           1           1
           1           1           1           1           1           2
           2           2           2           3           3           3
           3           3           3           3           3           3
           3           3           4           4           4           4
           4           4           4           4           4           4
           4           5           5           5           5           5
           5           5           5           5           5           5
           6           6           6           6           6           6
           6           6           6           6           6           7
           7           7           7           7           7           7
           7           7           7           7           8           8
           8           8           9           9           9           9
          10          10          10          10          11          11
          11          11          12          12          12          12
          13          13          13          13
Primitive exponents                        R   N=         162
  1.35753497e+04  2.03523337e+03  4.63225624e+02  1.31200196e+02  4.28530159e+01
  1.55841858e+01  6.20671385e+00  2.57648965e+00  5.76963394e-01  2.29728314e-01
  9.51644400e-02  3.46972322e+01  7.95826228e+00  2.37808269e+00  8.14332082e-01
  2.88875473e-01  1.00568237e-01  1.09700000e+00  3.18000000e-01  7.61000000e-01
  3.40613410e+01  5.12357460e+00  1.16466260e+00  3.27230410e-01  1.03072410e-01
  8.00000000e-01  1.35753497e+04  2.03523337e+03  4.63225624e+02  1.31200196e+02
  4.28530159e+01  1.55841858e+01  6.20671385e+00  2.57648965e+00  5.76963394e-01
  2.29728314e-01  9.51644400e-02  3.46972322e+01  7.95826228e+00  2.37808269e+00
  8.14332082e-01  2.88875473e-01  1.00568237e-01  1.09700000e+00  3.18000000e-01
  7.61000000e-01  2.70323826e+04  4.05238714e+03  9.22327227e+02  2.61240710e+02
  8.53546414e+01  3.10350352e+01  1.22608607e+01  4.99870760e+00  1.17031082e+00
  4.64747410e-01  1.85045364e-01  6.32749548e+01  1.46270494e+01  4.45012235e+00
  1.52757996e+00  5.29351179e-01  1.74784213e-01  2.31400000e+00  6.45000000e-01
  1.42800000e+00  2.70323826e+04  4.05238714e+03  9.22327227e+02  2.61240710e+02
  8.53546414e+01  3.10350352e+01  1.22608607e+01  4.99870760e+00  1.17031082e+00
  4.64747410e-01  1.85045364e-01  6.32749548e+01  1.46270494e+01  4.45012235e+00
  1.52757996e+00  5.29351179e-01  1.74784213e-01  2.31400000e+00  6.45000000e-01
  1.42800000e+00  1.97308006e+04  2.95789587e+03  6.73221336e+02  1.90682495e+02
  6.22954419e+01  2.26541612e+01  8.97914774e+00  3.68630024e+00  8.46600768e-01
  3.36471338e-01  1.36476537e-01  4.92003805e+01  1.13467905e+01  3.42739724e+00
  1.17855251e+00  4.16422050e-01  1.42608260e-01  1.65400000e+00  4.69000000e-01
  1.09300000e+00  1.35753497e+04  2.03523337e+03  4.63225624e+02  1.31200196e+02
  4.28530159e+01  1.55841858e+01  6.20671385e+00  2.57648965e+00  5.76963394e-01
  2.29728314e-01  9.51644400e-02  3.46972322e+01  7.95826228e+00  2.37808269e+00
  8.14332082e-01  2.88875473e-01  1.00568237e-01  1.09700000e+00  3.18000000e-01
  7.61000000e-01  3.40613410e+01  5.12357460e+00  1.16466260e+00  3.27230410e-01
  1.03072410e-01  8.00000000e-01  3.40613410e+01  5.12357460e+00  1.16466260e+00
  3.27230410e-01  1.03072410e-01  8.00000000e-01  3.40613410e+01  5.12357460e+00
  1.16466260e+00  3.27230410e-01  1.03072410e-01  8.00000000e-01  3.40613410e+01
  5.12357460e+00  1.16466260e+00  3.27230410e-01  1.03072410e-01  8.00000000e-01
  3.40613410e+01  5.12357460e+00  1.16466260e+00  3.27230410e-01  1.03072410e-01
  8.00000000e-01  3.40613410e+01  5.12357460e+00  1.16466260e+00  3.27230410e-01
  1.03072410e-01  8.00000000e-01
Contraction coefficients                   R   N=         162
  6.06455036e-04  4.69790889e-03  2.43324776e-02  9.73999683e-02  3.01955843e-01
  6.62336091e-01  6.55953085e-01  3.75856333e-01  1.00000000e+00  1.00000000e+00
  1.00000000e+00  1.13272200e-02  7.61696592e-02  3.01922522e-01  7.27850273e-01
  1.00000000e+00  1.00000000e+00  1.00000000e+00  1.00000000e+00  1.00000000e+00
  2.54393072e-02  1.90085949e-01  8.52441130e-01  1.00000000e+00  1.00000000e+00
  1.00000000e+00  6.06455036e-04  4.69790889e-03  2.43324776e-02  9.73999683e-02
  3.01955843e-01  6.62336091e-01  6.55953085e-01  3.75856333e-01  1.00000000e+00
  1.00000000e+00  1.00000000e+00  1.13272200e-02  7.61696592e-02  3.01922522e-01
  7.27850273e-01  1.00000000e+00  1.00000000e+00  1.00000000e+00  1.00000000e+00
  1.00000000e+00  5.72273352e-04  4.43532335e-03  2.30201077e-02  9.28224907e-02
  2.93785000e-01  6.74016045e-01  6.38399370e-01  3.95345871e-01  1.00000000e+00
  1.00000000e+00  1.00000000e+00  1.20183322e-02  8.30054218e-02  3.19917439e-01
  7.07155429e-01  1.00000000e+00  1.00000000e+00  1.00000000e+00  1.00000000e+00
  1.00000000e+00  5.72273352e-04  4.43532335e-03  2.30201077e-02  9.28224907e-02
  2.93785000e-01  6.74016045e-01  6.38399370e-01  3.95345871e-01  1.00000000e+00
  1.00000000e+00  1.00000000e+00  1.20183322e-02  8.30054218e-02  3.19917439e-01
  7.07155429e-01  1.00000000e+00  1.00000000e+00  1.00000000e+00  1.00000000e+00
  1.00000000e+00  5.86264026e-04  4.54288206e-03  2.35584135e-02  9.47091933e-02
  2.97197849e-01  6.69162469e-01  6.45966836e-01  3.87005744e-01  1.00000000e+00
  1.00000000e+00  1.00000000e+00  1.14488251e-02  7.84223380e-02  3.08180947e-01
  7.20271964e-01  1.00000000e+00  1.00000000e+00  1.00000000e+00  1.00000000e+00
  1.00000000e+00  6.06455036e-04  4.69790889e-03  2.43324776e-02  9.73999683e-02
  3.01955843e-01  6.62336091e-01  6.55953085e-01  3.75856333e-01  1.00000000e+00
  1.00000000e+00  1.00000000e+00  1.13272200e-02  7.61696592e-02  3.01922522e-01
  7.27850273e-01  1.00000000e+00  1.00000000e+00  1.00000000e+00  1.00000000e+00
  1.00000000e+00  2.54393072e-02  1.90085949e-01  8.52441130e-01  1.00000000e+00
  1.00000000e+00  1.00000000e+00  2.54393072e-02  1.90085949e-01  8.52441130e-01
  1.00000000e+00  1.00000000e+00  1.00000000e+00  2.54393072e-02  1.90085949e-01
  8.52441130e-01  1.00000000e+00  1.00000000e+00  1.00000000e+00  2.54393072e-02
  1.90085949e-01  8.52441130e-01  1.00000000e+00  1.00000000e+00  1.00000000e+00
  2.54393072e-02  1.90085949e-01  8.52441130e-01  1.00000000e+00  1.00000000e+00
  1.00000000e+00  2.54393072e-02  1.90085949e-01  8.52441130e-01  1.00000000e+00
  1.00000000e+00  1.00000000e+00
P(S=P) Contraction coefficients            R   N=         162
  0.00000000e+00  0.00000000e+00  0.00000000e+00  0.00000000e+00  0.00000000e+00
  0.00000000e+00  0.00000000e+00  0.00000000e+00  0.00000000e+00  0.00000000e+00
  0.00000000e+00  0.00000000e+00  0.00000000e+00  0.00000000e+00  0.00000000e+00
  0.00000000e+00  0.00000000e+00  0.00000000e+00  0.00000000e+00  0.00000000e+00
  0.00000000e+00  0.00000000e+00  0.00000000e+00  0.00000000e+00  0.00000000e+00
  0.00000000e+00  0.00000000e+00  0.00000000e+00  0.00000000e+00  0.00000000e+00
  0.00000000e+00  0.00000000e+00  0.00000000e+00  0.00000000e+00  0.00000000e+00
  0.00000000e+00  0.00000000e+00  0.00000000e+00  0.00000000e+00  0.00000000e+00
  0.00000000e+00  0.00000000e+00  0.00000000e+00  0.00000000e+00  0.00000000e+00
  0.00000000e+00  0.00000000e+00  0.00000000e+00  0.00000000e+00  0.00000000e+00
  0.00000000e+00  0.00000000e+00  0.00000000e+00  0.00000000e+00  0.00000000e+00
  0.00000000e+00  0.00000000e+00  0.00000000e+00  0.00000000e+00  0.00000000e+00
  0.00000000e+00  0.00000000e+00  0.00000000e+00  0.00000000e+00  0.00000000e+00
  0.00000000e+00  0.00000000e+00  0.00000000e+00  0.00000000e+00  0.00000000e+00
  0.00000000e+00  0.00000000e+00  0.00000000e+00  0.00000000e+00  0.00000000e+00
  0.00000000e+00  0.00000000e+00  0.00000000e+00  0.00000000e+00  0.00000000e+00
  0.00000000e+00  0.00000000e+00  0.00000000e+00  0.00000000e+00  0.00000000e+00
  0.00000000e+00  0.00000000e+00  0.00000000e+00  0.00000000e+00  0.00000000e+00
  0.00000000e+00  0.00000000e+00  0.00000000e+00  0.00000000e+00  0.00000000e+00
  0.00000000e+00  0.00000000e+00  0.00000000e+00  0.00000000e+00  0.00000000e+00
  0.00000000e+00  0.00000000e+00  0.00000000e+00  0.00000000e+00  0.00000000e+00
  0.00000000e+00  0.00000000e+00  0.00000000e+00  0.00000000e+00  0.00000000e+00
  0.00000000e+00  0.00000000e+00  0.00000000e+00  0.00000000e+00  0.00000000e+00
  0.00000000e+00  0.00000000e+00  0.00000000e+00  0.00000000e+00  0.00000000e+00
  0.00000000e+00  0.00000000e+00  0.00000000e+00  0.00000000e+00  0.00000000e+00
  0.00000000e+00  0.00000000e+00  0.00000000e+00  0.00000000e+00  0.00000000e+00
  0.00000000e+00  0.00000000e+00  0.00000000e+00  0.00000000e+00  0.00000000e+00
  0.00000000e+00  0.00000000e+00  0.00000000e+00  0.00000000e+00  0.00000000e+00
  0.00000000e+00  0.00000000e+00  0.00000000e+00  0.00000000e+00  0.00000000e+00
  0.00000000e+00  0.00000000e+00  0.00000000e+00  0.00000000e+00  0.00000000e+00
  0.00000000e+00  0.00000000e+00  0.00000000e+00  0.00000000e+00  0.00000000e+00
  0.00000000e+00  0.00000000e+00  0.00000000e+00  0.00000000e+00  0.00000000e+00
  0.00000000e+00  0.00000000e+00
Coordinates of each shell                  R   N=         282
  7.06703143e+00  1.08730911e+01  7.85439933e+00  7.06703143e+00  1.08730911e+01
  7.85439933e+00  7.06703143e+00  1.08730911e+01  7.85439933e+00  7.06703143e+00
  1.08730911e+01  7.85439933e+00  7.06703143e+00  1.08730911e+01  7.85439933e+00
  7.06703143e+00  1.08730911e+01  7.85439933e+00  7.06703143e+00  1.08730911e+01
  7.85439933e+00  7.06703143e+00  1.08730911e+01  7.85439933e+00  7.06703143e+00
  1.08730911e+01  7.85439933e+00  7.06703143e+00  1.08730911e+01  7.85439933e+00
  7.06703143e+00  1.08730911e+01  7.85439933e+00  7.18948812e+00  1.03804322e+01
  5.86303540e+00  7.18948812e+00  1.03804322e+01  5.86303540e+00  7.18948812e+00
  1.03804322e+01  5.86303540e+00  7.18948812e+00  1.03804322e+01  5.86303540e+00
  4.37703329e+00  1.18509953e+01  8.32551954e+00  4.37703329e+00  1.18509953e+01
  8.32551954e+00  4.37703329e+00  1.18509953e+01  8.32551954e+00  4.37703329e+00
  1.18509953e+01  8.32551954e+00  4.37703329e+00  1.18509953e+01  8.32551954e+00
  4.37703329e+00  1.18509953e+01  8.32551954e+00  4.37703329e+00  1.18509953e+01
  8.32551954e+00  4.37703329e+00  1.18509953e+01  8.32551954e+00  4.37703329e+00
  1.18509953e+01  8.32551954e+00  4.37703329e+00  1.18509953e+01  8.32551954e+00
  4.37703329e+00  1.18509953e+01  8.32551954e+00  4.10574631e+00  1.37819799e+01
  9.64915404e+00  4.10574631e+00  1.37819799e+01  9.64915404e+00  4.10574631e+00
  1.37819799e+01  9.64915404e+00  4.10574631e+00  1.37819799e+01  9.64915404e+00
  4.10574631e+00  1.37819799e+01  9.64915404e+00  4.10574631e+00  1.37819799e+01
  9.64915404e+00  4.10574631e+00  1.37819799e+01  9.64915404e+00  4.10574631e+00
  1.37819799e+01  9.64915404e+00  4.10574631e+00  1.37819799e+01  9.64915404e+00
  4.10574631e+00  1.37819799e+01  9.64915404e+00  4.10574631e+00  1.37819799e+01
  9.64915404e+00  2.61569242e+00  1.05875601e+01  7.32207058e+00  2.61569242e+00
  1.05875601e+01  7.32207058e+00  2.61569242e+00  1.05875601e+01  7.32207058e+00
  2.61569242e+00  1.05875601e+01  7.32207058e+00  2.61569242e+00  1.05875601e+01
  7.32207058e+00  2.61569242e+00  1.05875601e+01  7.32207058e+00  2.61569242e+00
  1.05875601e+01  7.32207058e+00  2.61569242e+00  1.05875601e+01  7.32207058e+00
  2.61569242e+00  1.05875601e+01  7.32207058e+00  2.61569242e+00  1.05875601e+01
  7.32207058e+00  2.61569242e+00  1.05875601e+01  7.32207058e+00  8.93704030e+00
  1.29010124e+01  8.40179835e+00  8.93704030e+00  1.29010124e+01  8.40179835e+00
  8.93704030e+00  1.29010124e+01  8.40179835e+00  8.93704030e+00  1.29010124e+01
  8.40179835e+00  8.93704030e+00  1.29010124e+01  8.40179835e+00  8.93704030e+00
  1.29010124e+01  8.40179835e+00  8.93704030e+00  1.29010124e+01  8.40179835e+00
  8.93704030e+00  1.29010124e+01  8.40179835e+00  8.93704030e+00  1.29010124e+01
  8.40179835e+00  8.93704030e+00  1.29010124e+01  8.40179835e+00  8.93704030e+00
  1.29010124e+01  8.40179835e+00  7.62470729e+00  8.56278386e+00  9.48732239e+00
  7.62470729e+00  8.56278386e+00  9.48732239e+00  7.62470729e+00  8.56278386e+00
  9.48732239e+00  7.62470729e+00  8.56278386e+00  9.48732239e+00  7.62470729e+00
  8.56278386e+00  9.48732239e+00  7.62470729e+00  8.56278386e+00  9.48732239e+00
  7.62470729e+00  8.56278386e+00  9.48732239e+00  7.62470729e+00  8.56278386e+00
  9.48732239e+00  7.62470729e+00  8.56278386e+00  9.48732239e+00  7.62470729e+00
  8.56278386e+00  9.48732239e+00  7.62470729e+00  8.56278386e+00  9.48732239e+00
  9.45958784e+00  7.76201665e+00  9.04889310e+00  9.45958784e+00  7.76201665e+00
  9.04889310e+00  9.45958784e+00  7.76201665e+00  9.04889310e+00  9.45958784e+00
  7.76201665e+00  9.04889310e+00  6.22438932e+00  7.11255164e+00  9.15090731e+00
  6.22438932e+00  7.11255164e+00  9.15090731e+00  6.22438932e+00  7.11255164e+00
  9.15090731e+00  6.22438932e+00  7.11255164e+00  9.15090731e+00  7.59143935e+00
  9.05825085e+00  1.14789182e+01  7.59143935e+00  9.05825085e+00  1.14789182e+01
  7.59143935e+00  9.05825085e+00  1.14789182e+01  7.59143935e+00  9.05825085e+00
  1.14789182e+01  8.73316468e+00  1.35381216e+01  1.02074500e+01  8.73316468e+00
  1.35381216e+01  1.02074500e+01  8.73316468e+00  1.35381216e+01  1.02074500e+01
  8.73316468e+00  1.35381216e+01  1.02074500e+01  8.63489292e+00  1.43716878e+01
  7.16951296e+00  8.63489292e+00  1.43716878e+01  7.16951296e+00  8.63489292e+00
  1.43716878e+01  7.16951296e+00  8.63489292e+00  1.43716878e+01  7.16951296e+00
  1.07237699e+01  1.22204333e+01  8.14027099e+00  1.07237699e+01  1.22204333e+01
  8.14027099e+00  1.07237699e+01  1.22204333e+01  8.14027099e+00  1.07237699e+01
  1.22204333e+01  8.14027099e+00
Virial ratio                               R      2.008275551542714E+00
SCF Energy                                 R     -3.236642231952519E+02
Alpha Orbital Energies                     R   N=         228
 -1.88682712e+01 -1.88523110e+01 -1.43241847e+01 -1.01079830e+01 -1.00891063e+01
 -1.00565119e+01 -1.01704609e+00 -9.55802301e-01 -8.65446046e-01 -7.64269256e-01
 -6.50936584e-01 -6.01311969e-01 -5.89062470e-01 -5.11430341e-01 -4.63482821e-01
 -4.09894197e-01 -3.90504725e-01 -3.79964781e-01 -3.56353068e-01 -3.26943604e-01
 -3.13202602e-01 -1.89417862e-01 -1.88211208e-01 -1.65458084e-01 -3.86700136e-02
  1.56742426e-02  3.01424078e-02  3.27939791e-02  6.62742728e-02  8.22156268e-02
  9.32927750e-02  1.16135543e-01  1.25787495e-01  1.41228187e-01  1.69846767e-01
  1.88288900e-01  1.97231806e-01  2.21375710e-01  2.29465761e-01  2.71101449e-01
  2.75908181e-01  3.02516955e-01  3.21127035e-01  3.39632905e-01  3.60419624e-01
  3.78868724e-01  3.86965696e-01  4.06935746e-01  4.13870538e-01  4.22997949e-01
  4.42159077e-01  4.46066523e-01  4.52644001e-01  4.62203266e-01  4.76057560e-01
  4.86063039e-01  5.31316755e-01  5.34609286e-01  5.64210741e-01  5.71760919e-01
  5.84548589e-01  6.25731244e-01  6.37348229e-01  6.58337441e-01  6.86089313e-01
  7.21182916e-01  7.75950034e-01  7.83813995e-01  8.05001678e-01  8.45134161e-01
  8.65922987e-01  8.97203361e-01  9.28007440e-01  9.91472444e-01  1.00907762e+00
  1.02291518e+00  1.04705851e+00  1.07219280e+00  1.10304490e+00  1.13571044e+00
  1.14713538e+00  1.20351680e+00  1.25260958e+00  1.26851888e+00  1.29918576e+00
  1.34387076e+00  1.36226707e+00  1.42967756e+00  1.45917588e+00  1.47921030e+00
  1.50692461e+00  1.51774972e+00  1.54305589e+00  1.56326375e+00  1.57614021e+00
  1.60612270e+00  1.61626193e+00  1.64284522e+00  1.67402292e+00  1.72249806e+00
  1.73032194e+00  1.75486091e+00  1.76126250e+00  1.77588583e+00  1.86720155e+00
  1.87374121e+00  1.90577987e+00  1.93462197e+00  1.95952628e+00  2.00115288e+00
  2.05771160e+00  2.07640597e+00  2.10306939e+00  2.13872093e+00  2.15751633e+00
  2.17944226e+00  2.23490993e+00  2.24596265e+00  2.27586462e+00  2.28978742e+00
  2.35122591e+00  2.35412223e+00  2.35804230e+00  2.39191971e+00  2.41449184e+00
  2.43426962e+00  2.44212769e+00  2.49030391e+00  2.55244870e+00  2.57726921e+00
  2.59076377e+00  2.63631565e+00  2.65222209e+00  2.67943599e+00  2.72339074e+00
  2.74057463e+00  2.78478275e+00  2.84489888e+00  2.84879467e+00  2.85955554e+00
  2.88430472e+00  2.93395070e+00  2.98065256e+00  3.00042283e+00  3.03595419e+00
  3.07389501e+00  3.09129686e+00  3.12436040e+00  3.14968680e+00  3.17265748e+00
  3.20239439e+00  3.21799474e+00  3.25047380e+00  3.29941966e+00  3.33832775e+00
  3.35551004e+00  3.39030874e+00  3.41129117e+00  3.42820037e+00  3.47020510e+00
  3.47626128e+00  3.52177160e+00  3.53137041e+00  3.59942886e+00  3.63368258e+00
  3.64125268e+00  3.69902724e+00  3.72439142e+00  3.80596459e+00  3.82517979e+00
  3.89699577e+00  3.92232533e+00  3.95043823e+00  4.00800490e+00  4.09338692e+00
  4.11615534e+00  4.18327803e+00  4.24862465e+00  4.35133872e+00  4.39130203e+00
  4.45343949e+00  4.50971549e+00  4.52489640e+00  4.59199121e+00  4.61556867e+00
  4.74533959e+00  4.79617822e+00  4.84341219e+00  4.85064244e+00  4.92728868e+00
  4.94683011e+00  5.01450920e+00  5.09150870e+00  5.21134795e+00  5.29508257e+00
  5.32169059e+00  5.34729171e+00  5.35422996e+00  5.36845442e+00  5.47636911e+00
  5.50942794e+00  5.52617121e+00  5.70903155e+00  5.73675621e+00  5.78921874e+00
  5.90405710e+00  5.98560472e+00  6.22713798e+00  6.23807589e+00  6.31381039e+00
  6.47307262e+00  6.54264930e+00  6.56604168e+00  6.60187991e+00  6.63952706e+00
  6.89414205e+00  6.95498323e+00  7.04604161e+00  7.10709791e+00  7.29410408e+00
  7.31755268e+00  7.43948289e+00  2.23679551e+01  2.25200183e+01  2.35259427e+01
  3.19033321e+01  4.39603559e+01  4.39780467e+01
Alpha MO coefficients                      R   N=       51984
 -9.14053879e-06  4.58923070e-05 -7.13599721e-05 -2.56199165e-03  1.26058536e-03
  6.50406771e-05 -1.13487019e-04 -2.73268994e-05  1.96137286e-03 -2.00433867e-04
 -4.71466760e-04 -1.63045535e-03 -2.22066986e-03 -4.52176787e-04  5.49678509e-05
  1.71570493e-05 -1.00250780e-04 -7.98736629e-05  3.14728317e-05  5.80207480e-05
  4.20478317e-04  7.17519419e-04 -2.31510230e-04  1.02155978e-03 -2.84479650e-05
 -4.37167137e-05 -1.50819659e-05 -8.15675082e-05 -2.44493049e-05  3.45428742e-05
 -4.47492513e-05 -1.29533857e-05 -1.81930610e-04 -2.49731000e-06  1.69166083e-05
  1.57583440e-04 -4.75626313e-05 -3.51285565e-05  1.93538110e-04 -2.26187227e-04
 -3.46388118e-03  3.87570637e-03 -2.81601818e-06 -3.43212566e-04 -2.51609185e-04
  1.94095126e-03 -5.32052389e-03 -3.59737823e-03  9.59596962e-04  4.37190435e-03
  3.43231550e-03  5.44533253e-05  4.82822107e-05 -3.15389098e-04  1.71636489e-04
  1.28045083e-04 -5.53873825e-04  1.24181717e-04 -2.78445141e-03  3.01395734e-03
 -1.42872560e-04  2.24601233e-04 -4.98426810e-05 -1.50636456e-05  6.20301725e-05
  1.74396865e-05 -7.59266483e-06 -1.49657798e-04 -4.35556428e-01 -6.39109330e-01
 -3.53908047e-02  2.72438613e-02 -1.19623718e-02 -4.19345055e-04  1.46613080e-03
  9.93597472e-04  9.54250230e-04 -4.29743046e-03 -2.90407719e-03 -5.77954586e-04
  9.94057215e-04  5.49277597e-04  3.25285227e-05  1.39616665e-05 -1.71642409e-04
  6.92214116e-05  3.14839056e-05  4.10393355e-06 -1.82220493e-04  9.53796268e-04
 -7.39329136e-04 -2.57721528e-04  6.21156247e-05  1.03938311e-05 -4.57617195e-05
  1.14808593e-04  3.69054404e-05 -3.31027627e-05  6.45799939e-05 -4.65231273e-06
 -1.20435298e-05  1.41753585e-04 -1.09351727e-03  2.19877074e-03 -9.44113034e-05
 -2.43915313e-05 -3.39261603e-05  2.91164009e-04 -2.64082448e-04 -1.17396278e-04
  4.95562390e-04 -4.12469401e-04 -3.42085922e-04  4.49379414e-05 -8.52180233e-06
 -4.20320625e-05 -4.50787368e-05  5.76441851e-06 -1.86654823e-04 -1.13921081e-05
  6.99660086e-05  2.65887996e-04 -9.36224426e-05 -3.91481759e-05 -3.08784336e-05
  2.15965205e-05 -3.75414458e-05  1.64305579e-05  3.41068158e-05 -1.64146837e-05
  3.25905723e-06 -2.00399103e-05  2.89569722e-04 -1.58789570e-03  3.01378184e-03
 -2.43437131e-05 -5.18859385e-05  3.47836535e-06  6.44129365e-04  4.98986096e-04
 -6.10205889e-05 -5.32650094e-04 -3.28961897e-04 -2.98275563e-04  1.83235376e-05
 -9.16551582e-06 -1.06912679e-05 -5.01915577e-05  2.51093479e-05 -3.02369686e-05
  5.30296467e-05 -1.32625636e-05  2.23388714e-04 -3.22908436e-04  5.03990650e-06
 -3.30677233e-05 -6.88086554e-06 -9.18515886e-06  5.72774658e-06  7.00450949e-06
  2.58165349e-06  2.39951746e-06 -1.18497998e-05  9.13259835e-05  6.40244830e-04
 -3.32581561e-03 -3.45939150e-05  7.34529758e-05 -1.83580475e-06  8.82550621e-06
  3.46672859e-04 -3.38768021e-04  1.13643433e-03 -3.29184672e-04  8.38091762e-04
 -2.54887221e-05  2.32862037e-05  2.58388818e-06 -2.92653631e-05 -6.25562987e-05
 -7.79483487e-06 -1.18056817e-04 -2.23583965e-04 -1.11242437e-05  5.54933663e-05
 -2.08182841e-05  2.14264490e-05  1.25613591e-06  1.96941419e-05  8.65458077e-06
  1.01999884e-05  2.21237589e-05 -2.54217002e-05  1.72289414e-04 -6.74339736e-05
 -3.77895106e-05 -2.53254359e-05 -3.68556908e-07 -6.18572096e-05  4.39740848e-04
  1.05403275e-03  6.53075465e-06  9.32886665e-05 -2.80799366e-05 -4.50301923e-06
  3.94137914e-04 -3.26431122e-04  1.49754448e-05 -1.68650116e-05 -5.71407932e-05
  3.48225370e-05 -1.81107906e-04 -1.33247405e-04  1.38262025e-05 -2.02861379e-05
 -3.08093298e-05  4.09149193e-05 -4.22611635e-04 -4.12584431e-04  1.27879526e-04
  4.17695007e-05 -4.80309107e-05 -4.00006959e-05 -4.86676400e-04  3.01813275e-04
  1.03642674e-04 -7.04668221e-05 -2.70228062e-05  8.46476457e-06 -4.18808685e-05
 -2.42326166e-04  4.43343055e-03 -4.91774846e-03 -6.08730926e-05  1.00460716e-04
 -2.11514228e-05 -2.23862976e-03 -4.20957780e-04  3.92588639e-04 -1.34604459e-03
 -1.33555059e-06 -2.96320615e-03 -4.33792348e-05  4.50397963e-06  7.01015904e-05
  7.32166218e-05 -2.90243430e-06 -4.22749053e-05 -5.12897244e-04 -6.69041683e-04
  2.48832171e-04 -1.10028922e-03 -4.75108144e-05  3.85661037e-05 -4.05337842e-05
  8.35926857e-05 -2.01818686e-05  6.72353462e-05  1.34767191e-04  2.84647936e-05
 -3.79885230e-04 -5.83001182e-05 -9.55650251e-05 -1.02930973e-04 -7.65263394e-05
  3.70690371e-05 -2.02450487e-04  1.88595936e-04  3.01442499e-03 -4.26699781e-03
 -2.29140249e-04 -2.10762274e-04 -1.97556858e-04 -6.06811702e-03 -3.12391844e-03
 -2.39705962e-03  3.12788786e-03  4.58712387e-03  3.14521518e-03 -1.31306597e-04
  2.05857947e-04  1.77944737e-04  1.31727258e-04  2.27063326e-04 -2.26935095e-04
  2.47325037e-03  1.14410050e-03  3.68710460e-05  3.46308261e-03  2.08848315e-04
  1.85170852e-04 -4.63010702e-05  6.47865572e-05 -1.23321837e-04 -1.87538460e-04
 -3.79163452e-05 -5.78937967e-06 -2.76585107e-06 -1.60067899e-04  1.27194405e-03
 -2.10403673e-03  6.23399160e-05 -7.55925769e-05 -3.81714130e-05 -5.17008242e-04
 -8.95813089e-05 -1.43934467e-04 -5.82384960e-04 -2.99389515e-04 -1.09676162e-04
 -3.26064766e-05 -1.04373525e-05  4.74335699e-05  2.02831190e-05 -2.67716458e-05
  1.49180726e-04  1.19931520e-04 -8.52848945e-05 -1.60529021e-04  2.19924503e-04
 -6.17808661e-05  5.46034781e-06 -1.82593507e-06 -9.36390704e-06  3.77597562e-06
  6.46520480e-06  4.53826136e-05  4.35566478e-01  6.39119364e-01  3.53709402e-02
 -2.73523215e-02  1.21200207e-02  1.41522761e-03  8.89407375e-04  7.31372175e-04
 -4.11279101e-03 -2.73431586e-03 -2.22743363e-03  1.02351361e-03  3.31238972e-04
  3.58145427e-04 -6.29976012e-05  7.08910547e-05  1.14535948e-04  4.83060973e-05
  8.61484286e-05  2.73177016e-04 -7.22312285e-04 -4.66560250e-04 -3.03180775e-04
 -8.98286328e-04  7.29037824e-05 -1.44380156e-06  2.16711598e-06 -3.51933371e-05
 -1.12388481e-04  3.76768391e-05 -9.12455603e-05 -9.13189695e-07  5.93416635e-06
 -1.66447877e-04  1.17585477e-03  3.21768500e-04  2.03876433e-05  4.01132306e-05
 -8.78874155e-06 -5.43740490e-04 -4.95701180e-04 -1.11079718e-04  8.17358696e-04
 -4.17191859e-04  2.24370972e-05 -1.04663233e-05  1.30448323e-05  1.33055499e-05