fchk produced by OCC                                                    
SP         b3lyp                                                   6-31G
Number of atoms                            I                3
Charge                                     I                0
Multiplicity                               I                1
Number of electrons                        I               10
Number of alpha electrons                  I                5
Number of beta electrons                   I                5
Number of basis functions                  I               13
Number of independent functions            I               13
Number of point charges in /Mol/           I                0
Number of translation vectors              I                0
Atomic numbers                             I   N=           3
           8           1           1
Nuclear charges                            R   N=           3
  8.00000000e+00  1.00000000e+00  1.00000000e+00
Current cartesian coordinates              R   N=           9
 -1.32695832e+00 -1.05938614e-01  1.87882241e-02 -1.93166520e+00  1.60017435e+00
 -2.17104965e-02  4.86644351e-01  7.95980990e-02  9.86248065e-03
Force Field                                I                0
Int Atom Types                             I   N=           3
           0           0           0
MM Charges                                 R   N=           3
  0.00000000e+00  0.00000000e+00  0.00000000e+00
Integer atomic weights                     I   N=           3
          16           1           1
Real atomic weights                        R   N=           3
  1.59994001e+01  1.00794005e+00  1.00794005e+00
Atom residue num                           I   N=           3
           0           0           0
Number of contracted shells                I                9
Number of primitive shells                 I               22
Pure/Cartesian d shells                    I                0
Pure/Cartesian f shells                    I                0
Highest angular momentum                   I                1
Largest degree of contraction              I                6
Shell types                                I   N=           9
           0           0           1           0           1           0
           0           0           0
Number of primitives per shell             I   N=           9
           6           3           3           1           1           3
           1           3           1
Shell to atom map                          I   N=           9
           1           1           1           1           1           2
           2           3           3
Primitive exponents                        R   N=          22
  5.48467166e+03  8.25234946e+02  1.88046958e+02  5.29645000e+01  1.68975704e+01
  5.79963534e+00  1.55396162e+01  3.59993359e+00  1.01376175e+00  1.55396162e+01
  3.59993359e+00  1.01376175e+00  2.70005823e-01  2.70005823e-01  1.87311370e+01
  2.82539437e+00  6.40121692e-01  1.61277759e-01  1.87311370e+01  2.82539437e+00
  6.40121692e-01  1.61277759e-01
Contraction coefficients                   R   N=          22
  1.83107443e-03  1.39501722e-02  6.84450781e-02  2.32714336e-01  4.70192898e-01
  3.58520853e-01 -1.10777550e-01 -1.48026263e-01  1.13076702e+00  7.08742682e-02
  3.39752839e-01  7.27158577e-01  1.00000000e+00  1.00000000e+00  3.34946043e-02
  2.34726954e-01  8.13757326e-01  1.00000000e+00  3.34946043e-02  2.34726954e-01
  8.13757326e-01  1.00000000e+00
P(S=P) Contraction coefficients            R   N=          22
  0.00000000e+00  0.00000000e+00  0.00000000e+00  0.00000000e+00  0.00000000e+00
  0.00000000e+00  0.00000000e+00  0.00000000e+00  0.00000000e+00  0.00000000e+00
  0.00000000e+00  0.00000000e+00  0.00000000e+00  0.00000000e+00  0.00000000e+00
  0.00000000e+00  0.00000000e+00  0.00000000e+00  0.00000000e+00  0.00000000e+00
  0.00000000e+00  0.00000000e+00
Coordinates of each shell                  R   N=          27
 -1.32695832e+00 -1.05938614e-01  1.87882241e-02 -1.32695832e+00 -1.05938614e-01
  1.87882241e-02 -1.32695832e+00 -1.05938614e-01  1.87882241e-02 -1.32695832e+00
 -1.05938614e-01  1.87882241e-02 -1.32695832e+00 -1.05938614e-01  1.87882241e-02
 -1.93166520e+00  1.60017435e+00 -2.17104965e-02 -1.93166520e+00  1.60017435e+00
 -2.17104965e-02  4.86644351e-01  7.95980990e-02  9.86248065e-03  4.86644351e-01
  7.95980990e-02  9.86248065e-03
Virial ratio                               R      2.008458671325209E+00
SCF Energy                                 R     -7.638496956917099E+01
Alpha Orbital Energies                     R   N=          13
 -1.91343258e+01 -1.01833053e+00 -5.27909878e-01 -3.58080530e-01 -2.92431724e-01
  5.61564186e-02  1.45979584e-01  8.06193257e-01  8.76317043e-01  8.88946130e-01
  9.60015158e-01  1.06738848e+00  1.42534316e+00
Alpha MO coefficients                      R   N=         169
 -9.95038285e-01 -2.79206686e-02 -1.17538448e-03 -1.88036908e-03  4.90664553e-05
  1.31664948e-02  1.45006733e-03  2.32019158e-03 -6.05426324e-05 -1.16886411e-04
 -3.10026249e-03 -1.38803578e-04 -3.03752047e-03 -2.09193018e-01  4.63635651e-01
  8.03895610e-02  1.30364391e-01 -3.39908829e-03  4.48604534e-01  3.73023568e-02
  5.91008299e-02 -1.54304538e-03  1.52566253e-01  1.22197102e-04  1.49617741e-01
  1.99891212e-04 -7.30164966e-04  1.33268689e-03  4.36166007e-01 -2.76934543e-01
  5.76048030e-03  4.01261563e-03  1.99149851e-01 -1.25482863e-01  2.60650383e-03
 -2.67113039e-01 -1.50567267e-01  2.66501616e-01  1.51313790e-01  9.10693483e-02
 -2.02279216e-01  2.90999697e-01  4.59104293e-01 -1.19895418e-02 -3.75769517e-01
  2.00412219e-01  3.15587627e-01 -8.24250946e-03  1.43091152e-01  1.04207670e-01
  1.43723303e-01  1.05767433e-01  3.33041029e-09 -9.96003040e-09 -1.55478655e-03
 -1.58911026e-02 -6.46238750e-01 -1.31271851e-08 -1.21410403e-03 -1.24090752e-02
 -5.04636434e-01  8.74225852e-09  1.15917389e-08  2.66067299e-09  3.01477962e-09
  8.77098272e-02 -1.52482644e-01 -1.61536564e-01 -2.43455877e-01  6.37526327e-03
 -1.08798064e+00 -2.46330074e-01 -3.73363023e-01  9.77371104e-03  9.40560661e-02
  9.25984894e-01  9.83718585e-02  9.46118330e-01 -1.13864340e-03  1.71891838e-03
 -3.52965900e-01  2.25838848e-01 -4.70420937e-03  2.07281360e-02 -6.33559663e-01
  4.06818942e-01 -8.47945956e-03 -9.74241067e-02 -1.30056604e+00  9.83982654e-02
  1.26997365e+00  1.34495214e-03 -1.06429419e-02 -1.74678956e-01  8.00397160e-02
 -1.54791916e-03  2.33357538e-02 -4.33981661e-01  2.96483978e-01 -6.24647643e-03
 -9.41466921e-01  6.42859645e-01  1.00057372e+00 -7.02262902e-01  3.03501581e-02
 -1.75913037e-01 -4.24097686e-01 -6.75601471e-01  1.76331827e-02  2.81080446e-01
  3.09923713e-01  4.22513576e-01 -1.11349883e-02  7.31206561e-01 -6.06801248e-01
  6.51676601e-01 -5.73171349e-01 -1.03876532e-08  5.75262402e-08 -2.30451768e-03
 -2.35551447e-02 -9.57917936e-01 -8.51002148e-08  2.50083519e-03  2.55615158e-02
  1.03950631e+00 -2.46983054e-07  1.80937765e-07 -2.04657749e-07  1.94478980e-07
  8.10036246e-02 -5.01505921e-01  2.85187893e-01  4.69086162e-01 -1.22210465e-02
  1.25216352e-01 -5.63592673e-01 -9.45503346e-01  2.46060361e-02  7.06702658e-01
 -1.90575266e-01  6.92041937e-01 -2.13909099e-01  1.18682318e-03 -9.58932722e-03
  8.33489626e-01 -5.24891828e-01  1.09018899e-02  1.17399103e-02 -1.40498599e+00
  8.76821306e-01 -1.81809216e-02  5.30348430e-03 -9.37238043e-01  2.35196266e-02
  9.17726806e-01  5.28405659e-02 -1.66203358e+00 -9.73419091e-02 -1.51087106e-01
  3.94945451e-03  2.77235046e+00  4.69462868e-01  7.50077001e-01 -1.95739995e-02
 -4.88877659e-01 -6.26494593e-01 -4.90491329e-01 -6.09593084e-01
Total SCF Density                          R   N=          91
  2.08431413e+00 -1.75259232e-01  5.13312476e-01  2.10705946e-02 -4.19552677e-02
  5.62775779e-01  3.32245110e-02 -6.54844858e-02  4.66332603e-02  6.09440860e-01
 -8.67690951e-04  1.71121997e-03 -4.89945824e-04  5.45301570e-03  8.35626021e-01
 -2.82340235e-01  5.67274298e-01 -1.43102006e-01 -2.30342662e-01  6.00845405e-03
  6.85276432e-01  1.77194657e-02 -4.60392130e-02  2.96362387e-01  8.34762062e-02
 -1.19554733e-03 -1.15513185e-01  1.62441526e-01  2.83196445e-02 -7.33351530e-02
  8.37444016e-02  3.75071297e-01  6.62371507e-03 -1.85096551e-01  8.09615076e-02
  2.37987551e-01 -7.39016534e-04  1.91409314e-03 -1.20214205e-03  6.62436519e-03
  6.52469398e-01  4.82947007e-03 -1.15556131e-03  6.48486031e-03  5.09470096e-01
 -3.71464677e-02  8.28761468e-02 -1.25202549e-01  3.19112032e-01 -7.54578859e-03
  2.71985175e-02 -3.76547908e-02  1.75384854e-01 -4.22215064e-03  2.30201857e-01
  2.53187612e-02 -4.22729769e-02 -7.06689118e-02  1.79122451e-01 -4.23463392e-03
 -7.94964716e-02 -1.82017915e-02  1.03560583e-01 -2.50278714e-03  1.10297363e-01
  6.70787339e-02 -3.65333489e-02  8.13098407e-02  3.40180502e-01  2.33711371e-02
 -1.39314335e-03  2.83598037e-02  1.74917112e-01  4.15162416e-02 -1.44172620e-03
 -5.55877792e-02 -5.02612728e-02  2.28129974e-01  2.50046409e-02 -4.20308262e-02
  1.93591723e-01  1.33720749e-02 -7.94586769e-04 -7.81746687e-02  1.02668513e-01
  2.87927432e-02 -9.55030307e-04 -5.05053017e-02 -2.35033691e-02  1.11113886e-01
  6.81837585e-02
