From PySCF
GAUSSIAN            135 MOL ORBITALS    264 PRIMITIVES       18 NUCLEI
 Cu       1 (CENTRE  1)  18.43341259  8.14330076 11.06833641  CHARGE = 29.0
 Cl       2 (CENTRE  2)  18.36603234  5.18734973  7.94365011  CHARGE = 17.0
  S       3 (CENTRE  3)  18.10442434 10.12776428 14.88523588  CHARGE = 16.0
 Cl       4 (CENTRE  4)  22.69059716  8.64372945 11.30213963  CHARGE = 17.0
  S       5 (CENTRE  5)  13.35016060 11.16896962 17.82705341  CHARGE = 16.0
  N       6 (CENTRE  6)  13.45398852  8.94227580 13.43572666  CHARGE =  7.0
  N       7 (CENTRE  7)  14.61839588  7.88324892 11.26676849  CHARGE =  7.0
  H       8 (CENTRE  8)  13.87385616  8.74452805  9.70194936  CHARGE =  1.0
  H       9 (CENTRE  9)  14.13690289  6.01113235 11.17763323  CHARGE =  1.0
  C      10 (CENTRE 10)  14.91429347  9.98904146 15.19473334  CHARGE =  6.0
  C      11 (CENTRE 11)  15.86121370 12.34989580 19.76999000  CHARGE =  6.0
  H      12 (CENTRE 12)  16.91100271 13.69178607 18.75130123  CHARGE =  1.0
  H      13 (CENTRE 13)  15.09821036 13.20033943 21.39281780  CHARGE =  1.0
  H      14 (CENTRE 14)  17.04624278 10.84975029 20.30409418  CHARGE =  1.0
  C      15 (CENTRE 15)  10.68876082  8.96294878 13.45341223  CHARGE =  6.0
  H      16 (CENTRE 16)  10.06027818 10.55933057 12.62502018  CHARGE =  1.0
  H      17 (CENTRE 17)  10.03629945  7.45096978 12.49520811  CHARGE =  1.0
  H      18 (CENTRE 18)  10.06483414  8.89266065 15.25203458  CHARGE =  1.0
CENTRE ASSIGNMENTS    1  1  1  1  1  1  1  1  1  1  1  1  1  1  1  1  1  1  1  1
CENTRE ASSIGNMENTS    1  1  1  1  1  1  1  1  1  1  1  1  1  1  1  1  1  1  1  1
CENTRE ASSIGNMENTS    1  1  1  1  1  1  1  1  1  1  1  1  1  1  1  1  1  2  2  2
CENTRE ASSIGNMENTS    2  2  2  2  2  2  2  2  2  2  2  2  2  2  2  2  2  2  2  2
CENTRE ASSIGNMENTS    2  2  2  2  3  3  3  3  3  3  3  3  3  3  3  3  3  3  3  3
CENTRE ASSIGNMENTS    3  3  3  3  3  3  3  3  3  3  3  4  4  4  4  4  4  4  4  4
CENTRE ASSIGNMENTS    4  4  4  4  4  4  4  4  4  4  4  4  4  4  4  4  4  4  5  5
CENTRE ASSIGNMENTS    5  5  5  5  5  5  5  5  5  5  5  5  5  5  5  5  5  5  5  5
CENTRE ASSIGNMENTS    5  5  5  5  5  6  6  6  6  6  6  6  6  6  6  6  6  6  6  6
CENTRE ASSIGNMENTS    7  7  7  7  7  7  7  7  7  7  7  7  7  7  7  8  8  8  9  9
CENTRE ASSIGNMENTS    9 10 10 10 10 10 10 10 10 10 10 10 10 10 10 10 11 11 11 11
CENTRE ASSIGNMENTS   11 11 11 11 11 11 11 11 11 11 11 12 12 12 13 13 13 14 14 14
CENTRE ASSIGNMENTS   15 15 15 15 15 15 15 15 15 15 15 15 15 15 15 16 16 16 17 17
CENTRE ASSIGNMENTS   17 18 18 18
TYPE ASSIGNMENTS      1  1  1  1  1  1  1  1  1  1  1  1  2  3  4  2  3  4  2  3
TYPE ASSIGNMENTS      4  2  3  4  2  3  4  2  3  4  2  3  4  2  3  4  2  3  4  5
TYPE ASSIGNMENTS      8  9  6 10  7  5  8  9  6 10  7  5  8  9  6 10  7  1  1  1
TYPE ASSIGNMENTS      1  1  1  1  1  1  2  3  4  2  3  4  2  3  4  2  3  4  2  3
TYPE ASSIGNMENTS      4  2  3  4  1  1  1  1  1  1  1  1  1  2  3  4  2  3  4  2
TYPE ASSIGNMENTS      3  4  2  3  4  2  3  4  2  3  4  1  1  1  1  1  1  1  1  1
TYPE ASSIGNMENTS      2  3  4  2  3  4  2  3  4  2  3  4  2  3  4  2  3  4  1  1
TYPE ASSIGNMENTS      1  1  1  1  1  1  1  2  3  4  2  3  4  2  3  4  2  3  4  2
TYPE ASSIGNMENTS      3  4  2  3  4  1  1  1  1  1  1  2  3  4  2  3  4  2  3  4
TYPE ASSIGNMENTS      1  1  1  1  1  1  2  3  4  2  3  4  2  3  4  1  1  1  1  1
TYPE ASSIGNMENTS      1  1  1  1  1  1  1  2  3  4  2  3  4  2  3  4  1  1  1  1
TYPE ASSIGNMENTS      1  1  2  3  4  2  3  4  2  3  4  1  1  1  1  1  1  1  1  1
TYPE ASSIGNMENTS      1  1  1  1  1  1  2  3  4  2  3  4  2  3  4  1  1  1  1  1
TYPE ASSIGNMENTS      1  1  1  1
EXPONENTS  4.1343020E+03 6.2549120E+02 1.8149600E+02 1.3695560E+02 3.9574310E+01
EXPONENTS  1.2351110E+01 1.2162460E+01 4.0496510E+00 1.2792250E+00 1.0498040E+00
EXPONENTS  1.1693300E-01 7.5100000E-04 1.8149600E+02 1.8149600E+02 1.8149600E+02
EXPONENTS  3.9574310E+01 3.9574310E+01 3.9574310E+01 1.2351110E+01 1.2351110E+01
EXPONENTS  1.2351110E+01 1.2162460E+01 1.2162460E+01 1.2162460E+01 4.0496510E+00
EXPONENTS  4.0496510E+00 4.0496510E+00 1.2792250E+00 1.2792250E+00 1.2792250E+00
EXPONENTS  1.0498040E+00 1.0498040E+00 1.0498040E+00 1.1693300E-01 1.1693300E-01
EXPONENTS  1.1693300E-01 7.5100000E-04 7.5100000E-04 7.5100000E-04 1.6759380E+01
EXPONENTS  1.6759380E+01 1.6759380E+01 1.6759380E+01 1.6759380E+01 1.6759380E+01
EXPONENTS  4.1789770E+00 4.1789770E+00 4.1789770E+00 4.1789770E+00 4.1789770E+00
EXPONENTS  4.1789770E+00 9.9432700E-01 9.9432700E-01 9.9432700E-01 9.9432700E-01
EXPONENTS  9.9432700E-01 9.9432700E-01 1.3764000E+03 2.0785700E+02 6.0801400E+01
EXPONENTS  4.5155400E+01 1.3976500E+01 3.8871000E+00 1.3529900E+00 5.2695500E-01
EXPONENTS  1.6671400E-01 6.0801400E+01 6.0801400E+01 6.0801400E+01 1.3976500E+01
EXPONENTS  1.3976500E+01 1.3976500E+01 3.8871000E+00 3.8871000E+00 3.8871000E+00
EXPONENTS  1.3529900E+00 1.3529900E+00 1.3529900E+00 5.2695500E-01 5.2695500E-01
EXPONENTS  5.2695500E-01 1.6671400E-01 1.6671400E-01 1.6671400E-01 1.2106200E+03
EXPONENTS  1.8274700E+02 5.2223600E+01 3.9667300E+01 1.1962900E+01 3.2891100E+00
EXPONENTS  1.2238400E+00 4.5730300E-01 1.4226900E-01 5.2223600E+01 5.2223600E+01
EXPONENTS  5.2223600E+01 1.1962900E+01 1.1962900E+01 1.1962900E+01 3.2891100E+00
EXPONENTS  3.2891100E+00 3.2891100E+00 1.2238400E+00 1.2238400E+00 1.2238400E+00
EXPONENTS  4.5730300E-01 4.5730300E-01 4.5730300E-01 1.4226900E-01 1.4226900E-01
EXPONENTS  1.4226900E-01 1.3764000E+03 2.0785700E+02 6.0801400E+01 4.5155400E+01
EXPONENTS  1.3976500E+01 3.8871000E+00 1.3529900E+00 5.2695500E-01 1.6671400E-01
EXPONENTS  6.0801400E+01 6.0801400E+01 6.0801400E+01 1.3976500E+01 1.3976500E+01
EXPONENTS  1.3976500E+01 3.8871000E+00 3.8871000E+00 3.8871000E+00 1.3529900E+00
EXPONENTS  1.3529900E+00 1.3529900E+00 5.2695500E-01 5.2695500E-01 5.2695500E-01
EXPONENTS  1.6671400E-01 1.6671400E-01 1.6671400E-01 1.2106200E+03 1.8274700E+02
EXPONENTS  5.2223600E+01 3.9667300E+01 1.1962900E+01 3.2891100E+00 1.2238400E+00
EXPONENTS  4.5730300E-01 1.4226900E-01 5.2223600E+01 5.2223600E+01 5.2223600E+01
EXPONENTS  1.1962900E+01 1.1962900E+01 1.1962900E+01 3.2891100E+00 3.2891100E+00
EXPONENTS  3.2891100E+00 1.2238400E+00 1.2238400E+00 1.2238400E+00 4.5730300E-01
EXPONENTS  4.5730300E-01 4.5730300E-01 1.4226900E-01 1.4226900E-01 1.4226900E-01
EXPONENTS  2.4276600E+02 3.6485100E+01 7.8144900E+00 5.4252200E+00 1.1491500E+00
EXPONENTS  2.8320500E-01 5.4252200E+00 5.4252200E+00 5.4252200E+00 1.1491500E+00
EXPONENTS  1.1491500E+00 1.1491500E+00 2.8320500E-01 2.8320500E-01 2.8320500E-01
EXPONENTS  2.4276600E+02 3.6485100E+01 7.8144900E+00 5.4252200E+00 1.1491500E+00
EXPONENTS  2.8320500E-01 5.4252200E+00 5.4252200E+00 5.4252200E+00 1.1491500E+00
EXPONENTS  1.1491500E+00 1.1491500E+00 2.8320500E-01 2.8320500E-01 2.8320500E-01
EXPONENTS  5.4471780E+00 8.2454700E-01 1.8319200E-01 5.4471780E+00 8.2454700E-01
EXPONENTS  1.8319200E-01 1.7225600E+02 2.5910900E+01 5.5333500E+00 3.6649800E+00
EXPONENTS  7.7054500E-01 1.9585700E-01 3.6649800E+00 3.6649800E+00 3.6649800E+00
EXPONENTS  7.7054500E-01 7.7054500E-01 7.7054500E-01 1.9585700E-01 1.9585700E-01
EXPONENTS  1.9585700E-01 1.7225600E+02 2.5910900E+01 5.5333500E+00 3.6649800E+00
EXPONENTS  7.7054500E-01 1.9585700E-01 3.6649800E+00 3.6649800E+00 3.6649800E+00
EXPONENTS  7.7054500E-01 7.7054500E-01 7.7054500E-01 1.9585700E-01 1.9585700E-01
EXPONENTS  1.9585700E-01 5.4471780E+00 8.2454700E-01 1.8319200E-01 5.4471780E+00
EXPONENTS  8.2454700E-01 1.8319200E-01 5.4471780E+00 8.2454700E-01 1.8319200E-01
EXPONENTS  1.7225600E+02 2.5910900E+01 5.5333500E+00 3.6649800E+00 7.7054500E-01
EXPONENTS  1.9585700E-01 3.6649800E+00 3.6649800E+00 3.6649800E+00 7.7054500E-01
EXPONENTS  7.7054500E-01 7.7054500E-01 1.9585700E-01 1.9585700E-01 1.9585700E-01
EXPONENTS  5.4471780E+00 8.2454700E-01 1.8319200E-01 5.4471780E+00 8.2454700E-01
EXPONENTS  1.8319200E-01 5.4471780E+00 8.2454700E-01 1.8319200E-01
MO  1                     OCC NO =   1.00000000 ORB. ENERGY = -319.46244594
  2.28537902E+01  3.28881620E+01 -2.12248904E-01  1.91840859E+01  5.74849341E-02
  1.74184249E-02  2.41299674E-01 -8.85851483E-03 -9.22769844E-03 -7.52778055E-04
  7.58547940E-04 -7.75785122E-08 -8.05901794E-04 -2.51841837E-04  7.05256589E-04
 -4.76470097E-04 -1.48895442E-04  4.16966034E-04  2.22155747E-05  1.33691012E-05
 -2.05933983E-05 -8.77058038E-05 -2.74077944E-05  7.67526471E-05  9.61196577E-05
  5.78438075E-05 -8.91010211E-05  2.79154374E-05  1.67992191E-05 -2.58770582E-05
 -7.74122991E-08 -3.64236507E-08  7.51337825E-08 -3.58355698E-05 -1.68611744E-05
  3.47808028E-05 -2.94002525E-10 -5.45923484E-11  8.13106796E-11 -2.84050175E-03
 -8.38844041E-04  1.19976764E-03  2.40030000E-03 -5.50743268E-03  4.40201752E-04
 -7.70108650E-04 -2.27424980E-04  3.25277546E-04  6.50762419E-04 -1.49315928E-03
  1.19346231E-04  2.43535769E-04  7.22909552E-05 -1.01731118E-04 -2.07479997E-04
  4.80920834E-04 -3.60557721E-05  2.89516365E-05  4.13066692E-05  2.16692633E-05
  2.34359236E-05 -3.72449693E-06 -2.76535781E-05 -1.07822439E-04  2.82644227E-04
 -2.51474566E-04 -5.54060235E-05  6.57679008E-04  4.23941402E-04 -3.72479962E-05
  4.42140108E-04  2.85004531E-04 -9.87289228E-06  1.17192926E-04  7.55428297E-05
  3.88548366E-06 -2.74401720E-05 -3.97076456E-06  4.48448833E-06 -3.16704796E-05
 -4.58291653E-06  1.58251603E-06 -6.97061254E-05 -9.58130775E-05  5.72253143E-07
  8.14458026E-07 -4.08149790E-05  4.58662621E-07  8.76906973E-06  5.02058625E-05
 -1.32212473E-04  2.71237923E-04 -3.04606560E-04  2.56415782E-04 -4.23808764E-04
 -1.17201275E-03  1.69608088E-04 -2.80331397E-04 -7.75236376E-04  4.45852303E-05
 -7.36912962E-05 -2.03787995E-04 -2.16247088E-05  1.35574614E-05  5.46806838E-05
 -3.33886443E-05  2.09327792E-05  8.44272131E-05  4.85994038E-05  5.71924082E-05
  7.11285331E-05  1.96649278E-05  2.80568826E-05  1.20210901E-05  1.59184696E-05
 -2.06617606E-06 -1.53409070E-05 -8.87762750E-05  2.32716879E-04 -2.11643015E-04
 -8.85894906E-04 -8.62728097E-05 -8.65918820E-05 -5.95563586E-04 -5.79989157E-05
 -5.82134195E-05 -1.57859100E-04 -1.53730967E-05 -1.54299527E-05  3.64397514E-05
  1.91453476E-06  5.78423422E-06  4.20574770E-05  2.20968856E-06  6.67595931E-06
  9.31944162E-05  1.51817415E-05 -2.87914521E-07 -4.11811087E-06 -5.86109223E-06
 -8.45352858E-06 -3.30067829E-06  1.81623471E-06  1.03985523E-05 -3.51835245E-06
  7.21800742E-06 -3.80939501E-05  1.35572619E-04 -8.53905034E-05 -1.50188190E-04
  8.96754969E-05 -5.64821710E-05 -9.93430733E-05  2.35731840E-05 -1.48475855E-05
 -2.61145199E-05 -9.25170996E-06  7.60824843E-06  1.35839201E-05 -1.42846803E-05
  1.17471686E-05  2.09736315E-05 -1.55441715E-05 -1.88907287E-06  1.81548948E-06
 -4.17398596E-05 -5.94002149E-05 -3.74349846E-05  1.06792322E-04 -9.87810218E-05
  1.16795485E-04 -5.51317593E-05 -2.30702943E-05 -2.27075459E-05 -2.85952963E-05
 -1.19659142E-05 -1.17777667E-05  9.42777477E-05 -1.42844430E-07 -1.23110132E-05
  1.55753923E-04  2.21654231E-04  1.39690113E-04 -4.51514586E-04  4.17643060E-04
 -3.29879687E-04  2.64958278E-04  2.59660430E-05  1.12784574E-04  1.37426423E-04
  1.34678578E-05  5.84981932E-05 -2.33039343E-04 -2.80311505E-05 -6.33938060E-05
  6.93460781E-05  9.74176757E-05 -8.98836051E-05  6.93561020E-05  9.74317574E-05
 -6.55529867E-05 -2.43550883E-05 -3.41711960E-05 -2.09644955E-05  6.12348081E-05
 -5.83898522E-05  8.84025241E-05  8.20889060E-05 -4.18133752E-05 -1.06873092E-04
  4.25349287E-05 -2.16658867E-05 -5.53770244E-05  4.72698135E-05  3.47012661E-05
  6.66255259E-05 -1.63248722E-06 -2.29044708E-06 -1.40522057E-06 -2.48716424E-06
  2.37161113E-06  1.43352788E-05  2.08365235E-05 -2.40911199E-05 -3.56477913E-05
  1.07965873E-05 -1.24829788E-05 -1.84711472E-05 -1.83989204E-05  9.07521816E-06
  9.16843032E-06  5.30349677E-06  7.45037560E-06 -2.21203280E-06 -5.03633362E-06
 -7.07506364E-06 -1.33159126E-05  4.85958950E-07  6.82677272E-07  1.10923422E-05
  3.56040264E-07  4.99539215E-07  3.06474131E-07 -6.48248619E-06  6.18131129E-06
  8.68496923E-06  7.95390047E-06 -5.80972929E-06  5.54946011E-06  4.12136799E-06
 -3.01035101E-06  2.87549076E-06  1.66161174E-05  6.77941437E-06  7.51749713E-06
 -5.38802606E-06 -7.56912273E-06  5.74076323E-06 -5.50002478E-06 -7.72645902E-06
  1.78099414E-05 -3.01525446E-06 -4.23584274E-06 -2.19762979E-06
MO  3                     OCC NO =   1.00000000 ORB. ENERGY = -99.79688360
 -4.66436039E-05 -6.71233258E-05 -1.23825743E-04 -3.91538951E-05  3.35366381E-05
 -5.73601986E-05  1.40773926E-04  2.91717633E-05  3.03875131E-05 -2.08483397E-04
  2.10081378E-04  2.33292650E-07  1.63538210E-04 -1.21392864E-03 -2.39519106E-03
  9.66880420E-05 -7.17706179E-04 -1.41609924E-03 -3.52224718E-06  3.64514924E-05
  6.58491302E-05  1.77977642E-05 -1.32111118E-04 -2.60667192E-04 -1.52396324E-05
  1.57713902E-04  2.84908040E-04 -4.42595215E-06  4.58038726E-05  8.27440792E-05
 -5.72474996E-10 -6.11587991E-07 -7.69286748E-07 -2.65009151E-07 -2.83115272E-04
 -3.56116912E-04  3.12923586E-10 -2.37625513E-09 -2.80516658E-09  2.96721816E-03
 -4.15731634E-04 -4.66897542E-04 -2.32671639E-03 -9.31433111E-03 -6.40501771E-04
  8.04463639E-04 -1.12711963E-04 -1.26583916E-04 -6.30812644E-04 -2.52527461E-03
 -1.73650995E-04 -2.86632423E-04  3.88287830E-05  4.60676763E-05  2.17441282E-04
  8.85252691E-04  6.91911409E-05 -1.02518905E+01 -1.46268570E+01  8.27924735E-02
 -8.29875444E+00 -1.42303091E-02 -1.05656944E-01 -3.98488275E-03  1.04459156E-02
 -2.37640013E-03  5.36067181E-04 -3.81198569E-03 -3.83356342E-03  3.60383710E-04
 -2.56269661E-03 -2.57720274E-03  9.55227104E-05 -6.79264126E-04 -6.83109099E-04
 -1.72860316E-05  2.98057509E-04  2.96317854E-04 -1.99509286E-05  3.44007474E-04
  3.41999626E-04  5.83426796E-06 -3.46030007E-04 -3.47277891E-04 -1.24283325E-05
 -1.76885968E-05  5.98336888E-06 -9.96134598E-06 -1.28552262E-06 -7.36004778E-06
  1.83726786E-04 -3.76921108E-04  4.67940906E-04  4.03562546E-04  1.88585226E-04
 -6.26265593E-04  2.66939388E-04  1.24741072E-04 -4.14247942E-04  7.01709111E-05
  3.27909446E-05 -1.08894216E-04 -3.11119716E-05 -7.36055304E-06  6.36438482E-05
 -4.80370192E-05 -1.13647258E-05  9.82663778E-05 -1.46294501E-05 -6.69501619E-05
 -2.08397411E-04  4.31259687E-02  6.15298595E-02 -3.95100918E-04  3.49098369E-02
  6.79096533E-05  5.04214376E-04  5.02673454E-05 -1.31770113E-04  3.91179900E-05
 -6.16738616E-04 -7.14635945E-04 -7.61621479E-04 -4.14616971E-04 -4.80430741E-04
 -5.12017867E-04 -1.09897689E-04 -1.27342178E-04 -1.35714609E-04  4.97965328E-05
  5.47132406E-05  5.79980271E-05  5.74734035E-05  6.31480944E-05  6.69392792E-05
 -2.29363857E-05  2.40318064E-06  6.64200583E-06  3.23978332E-07  4.61101449E-07
 -1.05335105E-05  2.59669611E-07  2.26311738E-06  1.29571053E-05  1.12712274E-05
 -2.31232669E-05 -3.15210345E-05  1.46739495E-04 -1.01504823E-04 -1.33063881E-04
  9.70619089E-05 -6.71411054E-05 -8.80160739E-05  2.55148655E-05 -1.76495217E-05
 -2.31369680E-05 -1.22784937E-05  8.16850184E-06  1.21547251E-05 -1.89580476E-05
  1.26122023E-05  1.87669483E-05 -7.45299545E-06  2.95155840E-06  8.16105216E-06
 -5.14258479E-05 -7.31843961E-05 -4.61220005E-05  1.30376484E-04 -1.20595957E-04
  1.65317845E-04 -1.88881076E-04 -7.10060450E-05  1.01391422E-04 -9.79673130E-05
 -3.68288428E-05  5.25888853E-05  1.52013191E-04 -4.30182534E-06 -8.78199232E-05
  6.42255222E-05  9.13996803E-05  5.76015698E-05 -1.49936240E-04  1.38688388E-04
 -2.43860838E-04 -2.48963069E-04  2.25884882E-05  2.87831833E-04 -1.29130157E-04
  1.17160149E-05  1.49290294E-04  5.77098400E-05  1.53889808E-05 -1.08987424E-04
 -3.57417009E-05 -5.02100987E-05 -5.69151328E-07 -8.90812584E-05 -1.25141744E-04
  1.41420908E-04  2.32141817E-05  3.25704569E-05  1.99824201E-05 -3.19314291E-05
  3.04479019E-05 -1.13691269E-04  5.56120524E-05  2.20277312E-05  1.58201568E-05
  2.88157658E-05  1.14138197E-05  8.19732255E-06 -7.80298857E-05  2.10291395E-05
  8.56904269E-05 -7.37287354E-06 -1.03444465E-05 -6.34645919E-06  2.27981524E-05
 -2.17389552E-05 -1.12636584E-05 -4.22370810E-05  4.38513709E-05  9.89507993E-05
 -2.18854327E-05  2.27218881E-05  5.12720342E-05  1.75381496E-05 -2.11373572E-05
 -5.06938705E-05 -1.87828670E-05 -2.63862542E-05  1.14142308E-05  1.30283594E-05
  1.83022966E-05  3.37067583E-05 -2.58023015E-05 -3.62471867E-05  2.55427325E-05
 -9.40873417E-06 -1.32008431E-05 -8.09889755E-06  1.46485269E-05 -1.39679595E-05
  6.70335436E-05  7.75152213E-05  1.90044526E-06  1.63677349E-05  4.01650427E-05
  9.84728723E-07  8.48105389E-06 -4.52817964E-08 -6.33411893E-06  5.31321388E-06
 -4.47055678E-06 -6.28025784E-06 -5.72318326E-06  9.39227383E-06  1.31943076E-05
 -3.51569833E-05 -1.02177833E-05 -1.43539869E-05 -1.05479623E-05
MO  5                     OCC NO =   1.00000000 ORB. ENERGY = -99.78366101
 -5.19781983E-06 -7.48001707E-06  1.43156301E-04 -4.36318970E-06 -3.87720757E-05
  1.44439810E-04 -1.62750282E-04 -7.34579736E-05 -7.65193762E-05  2.65026043E-04
 -2.67057412E-04 -2.32744389E-07 -2.11419704E-03  2.73312103E-04  6.37545479E-04
 -1.24996827E-03  1.61589222E-04  3.76933465E-04  6.31444488E-05 -5.41130320E-06
 -1.52461913E-05 -2.30086783E-04  2.97443905E-05  6.93836881E-05  2.73205752E-04
 -2.34129712E-05 -6.59653738E-05  7.93454561E-05 -6.79968435E-06 -1.91579153E-05
 -8.60315099E-07 -5.18953483E-08  4.08930751E-08 -3.98255601E-04 -2.40233063E-05
  1.89301527E-05 -3.70428299E-09 -3.07286360E-10  6.26379057E-12  5.39680347E-03
  1.96993210E-03  1.31377646E-03 -2.40193597E-03 -5.14399599E-04 -2.99486749E-03
  1.46316581E-03  5.34082315E-04  3.56187288E-04 -6.51205961E-04 -1.39462537E-04
 -8.11959846E-04 -5.29249032E-04 -1.91406076E-04 -1.23113575E-04  2.36549572E-04
  5.07144694E-05  2.92699460E-04  4.32077863E-02  6.16465925E-02 -3.01373944E-04
  3.49760671E-02  5.17999304E-05  3.84603194E-04 -1.27422944E-05  3.34024714E-05
  7.75160745E-06 -9.17434796E-04 -4.95526040E-04 -5.07370127E-04 -6.16767016E-04
 -3.33128979E-04 -3.41091444E-04 -1.63479246E-04 -8.82986164E-05 -9.04091342E-05
  6.71890566E-05  3.89556351E-05  4.09859443E-05  7.75472415E-05  4.49612213E-05
  4.73045327E-05  1.50281746E-05 -5.38471271E-07 -6.26204046E-06 -1.26407419E-06
 -1.79909080E-06  8.19955554E-05 -1.01315927E-06 -1.76166878E-05 -1.00861441E-04
 -8.98911806E-05  1.84414500E-04  4.93936085E-05 -1.50443129E-03  4.75741028E-04
  1.18317840E-03 -9.95117044E-04  3.14682371E-04  7.82621977E-04 -2.61588483E-04
  8.27212081E-05  2.05729463E-04  1.11688136E-04 -3.80148951E-05 -9.29374807E-05
  1.72446966E-04 -5.86951630E-05 -1.43495873E-04 -1.66065109E-04  2.48333681E-05
  7.78483667E-05  1.02518781E+01  1.46268394E+01 -8.28058151E-02  8.29874445E+00
  1.42326022E-02  1.05673970E-01  3.99626266E-03 -1.04757468E-02  2.37397142E-03
 -5.60345491E-03 -2.77349354E-04  2.60834530E-04 -3.76705373E-03 -1.86454595E-04
  1.75352118E-04 -9.98489033E-04 -4.94213468E-05  4.64785425E-05  4.36320665E-04
  2.79836566E-05 -1.77990355E-05  5.03585937E-04  3.22977504E-05 -2.05430196E-05
 -4.89051602E-04 -4.28370711E-05  2.60473565E-07  3.35799692E-07  4.77926173E-07
  6.23058281E-06  2.69144466E-07 -1.33863636E-06 -7.66414174E-06 -1.38133526E-05
  2.83385145E-05 -4.04712544E-05 -2.10229215E-04 -5.14165943E-05 -7.25229167E-05
 -1.39057647E-04 -3.40098812E-05 -4.79708119E-05 -3.65543723E-05 -8.94024805E-06
 -1.26101869E-05  1.42860329E-05  5.06527185E-06  7.97612948E-06  2.20576968E-05
  7.82080171E-06  1.23151785E-05 -8.51261615E-06  8.11673505E-06  1.84014067E-05
 -7.24278145E-06 -1.03072406E-05 -6.49579119E-06 -2.06375936E-06  1.90894115E-06
  1.61041185E-05 -1.10823071E-04 -2.00069101E-05 -2.48622096E-05 -5.74808167E-05
 -1.03770228E-05 -1.28953304E-05  1.15978517E-04  2.86099999E-05  3.62245932E-05
  1.14176812E-04  1.62485625E-04  1.02401092E-04 -3.55788188E-04  3.29097823E-04
 -2.95200759E-04  5.85144026E-04  4.87733026E-05 -2.74991351E-05  3.03497784E-04
  2.52973433E-05 -1.42630296E-05 -3.17543758E-04 -3.64305782E-05 -7.57713810E-06
  4.84244541E-05  6.80268862E-05 -1.07388193E-04  4.15002493E-05  5.82997329E-05
 -9.96545732E-05  7.51003599E-05  1.05368911E-04  6.46452657E-05 -2.14002587E-04
  2.04060073E-04 -2.88721468E-04  2.56292219E-04 -1.44206873E-06 -5.43313735E-05
  1.32799568E-04 -7.47217788E-07 -2.81521732E-05 -1.52113730E-04  2.97303828E-05
  8.60051377E-05  9.22569202E-06  1.29440274E-05  7.94133761E-06 -3.10571165E-05
  2.96142096E-05  9.24933186E-06  2.23062522E-05 -5.44390525E-05 -1.01012333E-04
  1.15581373E-05 -2.82079678E-05 -5.23402323E-05 -1.36484076E-05  2.56089174E-05
  4.48234624E-05  1.86482547E-05  2.61971502E-05 -1.56941138E-05 -8.86590046E-06
 -1.24548560E-05 -3.64163828E-05  1.71584479E-05  2.41042631E-05 -8.81035217E-06
  3.75579679E-06  5.26953822E-06  3.23293367E-06 -3.39180138E-05  3.23421902E-05
  1.26070952E-05  7.83355147E-05 -1.25803777E-06  1.49869683E-06  4.05900833E-05
 -6.51860882E-07  7.76560026E-07  1.29852265E-05 -5.81703708E-06 -7.28113574E-06
 -4.38831941E-06 -6.16473042E-06  7.64571818E-06 -1.01688736E-05 -1.42852784E-05
  5.95300954E-06  4.74367628E-07  6.66393732E-07  4.76503830E-06
MO  7                     OCC NO =   1.00000000 ORB. ENERGY = -87.46955496
  3.22794943E-05  4.64523928E-05 -1.31239584E-05  2.70962753E-05  3.55445835E-06
 -5.50036006E-05  1.49202509E-05  2.79732647E-05  2.91390663E-05 -4.23152708E-05
  4.26396085E-05  1.32257292E-07  1.29767188E-03  6.88107973E-05 -2.62894799E-04
  7.67217360E-04  4.06827326E-05 -1.55430241E-04 -3.20988658E-05 -1.94599648E-06
  6.02533709E-06  1.41224844E-04  7.48863736E-06 -2.86106817E-05 -1.38881484E-04
 -8.41970183E-06  2.60696987E-05 -4.03344901E-05 -2.44528190E-06  7.57126127E-06
  5.81500653E-08  4.99509371E-08  6.99170118E-08  2.69187293E-05  2.31232028E-05
  3.23658641E-05 -3.07504592E-09  1.02057154E-09  2.29861826E-09  4.20270101E-04
 -4.45845083E-04 -8.42280579E-04  6.84224018E-05 -6.56777311E-04 -4.88692503E-04
  1.13942419E-04 -1.20876234E-04 -2.28356684E-04  1.85504845E-05 -1.78063572E-04
 -1.32492903E-04 -3.60535712E-05  3.80803621E-05  7.07903182E-05 -8.27360737E-06
  6.19517614E-05  4.43271785E-05 -2.19170743E-05 -3.12701266E-05 -1.04030301E-05
 -1.77415491E-05  1.78806512E-06  1.32759938E-05  1.77026425E-05 -4.64054582E-05
  3.93966167E-05 -1.24322256E-04  9.96903015E-05  5.75504224E-05 -8.35785467E-05
  6.70191386E-05  3.86896185E-05 -2.21531914E-05  1.77639821E-05  1.02550063E-05
  1.20794936E-05 -1.01505458E-05 -6.34546033E-06  1.39417259E-05 -1.17154022E-05
 -7.32370671E-06 -1.11872622E-05  1.53825358E-05  1.25728948E-05  1.78446187E-02
  2.53973143E-02 -2.03125297E-04  1.43025157E-02  4.36413282E-05  2.49861227E-04
  1.21285088E-04 -2.48820060E-04 -5.23716170E-05 -1.97849737E-03  1.79285832E-04
  7.39434669E-04 -1.30869151E-03  1.18589921E-04  4.89104453E-04 -3.44018454E-04
  3.11739786E-05  1.28571903E-04  1.72080999E-04 -1.98377604E-05 -7.29462220E-05
  2.65693809E-04 -3.06295882E-05 -1.12629283E-04 -5.17708577E-05  4.53865039E-05
  1.03196416E-04 -1.57293801E-05 -2.24418507E-05 -9.26916383E-06 -1.27327017E-05
  1.59317702E-06  1.18289921E-05  3.48005717E-06 -9.12257295E-06 -1.56995904E-05
 -1.68953802E-04  1.21220898E-04  2.68948695E-04 -1.13583148E-04  8.14935858E-05
  1.80807055E-04 -3.01061614E-05  2.16005551E-05  4.79244191E-05  1.33499337E-05
 -1.12071178E-05 -2.46422891E-05  1.54080230E-05 -1.29348604E-05 -2.84412617E-05
  6.05680301E-06  8.52573790E-06  1.67676347E-05 -9.37764209E+00 -1.33467085E+01
  7.23825253E-02 -7.51620843E+00 -1.55513350E-02 -8.90366038E-02 -4.34650156E-03
  8.91698058E-03 -1.52335064E-03 -3.95887421E-03  9.32663979E-04  2.38913394E-03
 -2.61862621E-03  6.16917389E-04  1.58031007E-03 -6.88363708E-04  1.62170354E-04
  4.15419387E-04  1.54880195E-04 -6.72825970E-05 -1.50679450E-04  2.39135694E-04
 -1.03884622E-04 -2.32649724E-04 -9.59074944E-05  2.72852078E-05  6.37990806E-05
 -5.60879718E-05 -7.98190892E-05 -5.03032924E-05  2.30828235E-04 -2.13512062E-04
  1.15794727E-04  6.18503200E-04 -3.09867379E-04 -8.94281700E-04  3.20800251E-04
 -1.60719513E-04 -4.63838820E-04 -2.66664664E-04  1.89962190E-04  5.08673881E-04
 -9.45458824E-05 -1.34548745E-04 -8.47948145E-05  2.02709925E-04 -1.87503119E-04
  3.28109290E-04  8.33440357E-06  1.10566148E-04  2.46758245E-04  4.32282123E-06
  5.73475578E-05  1.27986576E-04 -1.03418139E-04  5.79753315E-05  9.49099457E-05
 -4.81938190E-05 -6.77028890E-05 -3.55317427E-06 -3.82832023E-05 -5.37804111E-05
 -1.32155443E-06  1.68122430E-04  2.35882721E-04  1.44717271E-04 -1.18850177E-04
  1.13328424E-04  2.39176936E-05 -2.61921283E-04 -1.55791825E-06  2.09031877E-05
 -1.35716306E-04 -8.07246008E-07  1.08311298E-05  3.36328999E-04 -5.74771786E-06
 -8.23700429E-05  2.97144214E-04  4.16905620E-04  2.55777292E-04 -6.82649864E-04
  6.50934099E-04 -3.78913688E-04  2.29173945E-04  4.61589792E-06 -9.06369752E-06
  1.18748049E-04  2.39175911E-06 -4.69641693E-06 -7.64675055E-05 -8.86947092E-07
 -2.74623158E-06  3.67655618E-05  5.16484231E-05  1.86289629E-04  1.18210228E-05
  1.66062248E-05  1.45509838E-04  2.99957951E-05  4.21382251E-05  2.02513590E-04
 -1.10555189E-06 -1.55113502E-06 -9.51642523E-07  1.07744736E-04 -1.02738939E-04
 -2.22724948E-04 -5.34582173E-04 -2.68995206E-04 -2.43872642E-04 -2.76997413E-04
 -1.39381708E-04 -1.26364279E-04  1.04518459E-04  1.25070201E-04 -9.19723257E-08
 -3.82249157E-05 -5.36985299E-05  1.33631672E-05  5.15804700E-05  7.24604713E-05
  1.08076609E-04 -6.07624653E-05 -8.53593788E-05  2.47522467E-04
MO  9                     OCC NO =   1.00000000 ORB. ENERGY = -87.42376095
  1.13421585E-04  1.63221394E-04 -1.07179830E-04  9.52091280E-05  2.90283029E-05
 -2.50101185E-04  1.21849666E-04  1.27194340E-04  1.32495236E-04 -2.72565749E-04
  2.74654908E-04  2.11703887E-07 -2.01188619E-04 -6.30117551E-04 -2.01518524E-03
 -1.18947943E-04 -3.72541881E-04 -1.19142992E-03  6.94660081E-06  1.25556163E-05
  4.38926888E-05 -2.18952355E-05 -6.85753111E-05 -2.19311389E-04  3.00557109E-05
  5.43241198E-05  1.89909569E-04  8.72889414E-06  1.57770180E-05  5.51542610E-05
 -1.47577103E-07  3.02103041E-07  5.22538865E-07 -6.83161416E-05  1.39849026E-04
  2.41892802E-04  4.54525779E-11  9.27011066E-10  1.71567001E-09  2.04261828E-03
  1.42157917E-03  2.55596834E-03  9.83940147E-04 -3.69983263E-03 -3.02655843E-03
  5.53788783E-04  3.85414450E-04  6.92966772E-04  2.66763018E-04 -1.00308796E-03
 -8.20551801E-04 -2.16174665E-04 -1.34281227E-04 -2.40680832E-04 -9.74617755E-05
  4.07340519E-04  3.13636441E-04 -6.64046344E-05 -9.47426329E-05 -2.76779794E-05
 -5.37535742E-05  4.75727060E-06  3.53216975E-05  7.24467069E-05 -1.89910779E-04
  2.11002872E-04  2.17764395E-04  2.80999147E-04 -1.82918350E-04  1.46397212E-04
  1.88908254E-04 -1.22971142E-04  3.88038029E-05  5.00717094E-05 -3.25945277E-05
 -2.19621997E-05 -3.26026136E-05  1.06950240E-05 -2.53479970E-05 -3.76287878E-05
  1.23438198E-05  2.52135076E-05  8.30434690E-05  4.71756881E-05 -9.37758160E+00
 -1.33466224E+01  7.23910566E-02 -7.51615995E+00 -1.55531679E-02 -8.90470980E-02
 -4.58372239E-03  9.40364636E-03 -1.99912177E-03  4.12931934E-03  1.34550956E-03
  2.00818133E-03  2.73136838E-03  8.89997111E-04  1.32832618E-03  7.18000477E-04
  2.33955388E-04  3.49179861E-04 -1.92662141E-04 -8.50236594E-05 -1.39128787E-04
 -2.97471182E-04 -1.31276899E-04 -2.14815450E-04  1.18121630E-04  1.44994218E-04
  2.69498056E-04 -1.73733243E-04 -2.47873435E-04 -9.02289287E-05 -1.40634503E-04
  1.55084815E-05  1.15147095E-04  1.04702113E-04 -2.74464648E-04  1.30065075E-04
 -1.04110869E-03  3.20375389E-04  7.74966675E-04 -6.99909686E-04  2.15379854E-04
  5.20989487E-04 -1.85516904E-04  5.70882281E-05  1.38092612E-04  9.90618990E-05
 -2.83266438E-05 -7.08292139E-05  1.14333753E-04 -3.26936141E-05 -8.17485829E-05
 -6.52230108E-05  8.31455244E-06  3.17452730E-05 -1.79905323E-02 -2.56049856E-02
  8.09077026E-05 -1.44194660E-02 -1.73829634E-05 -9.95232901E-05  1.30676805E-04
 -2.68087454E-04  1.06373026E-04  7.18794244E-04 -2.79937787E-04 -6.83010340E-04
  4.75451693E-04 -1.85166890E-04 -4.51782169E-04  1.24982973E-04 -4.86752047E-05
 -1.18760917E-04 -7.51346299E-05  1.78522671E-05  4.88436265E-05 -1.16008195E-04
  2.75639779E-05  7.54147713E-05  1.06665512E-04  2.75078506E-05  3.48206425E-05
  1.80897072E-05  2.57435580E-05  1.62240103E-05  1.65702386E-06 -1.53271796E-06
 -2.28007168E-04 -1.03117149E-03  1.43586128E-04  3.86338204E-04 -5.34839712E-04
  7.44740951E-05  2.00382784E-04  4.03576213E-04 -1.51365531E-04 -3.23196127E-04
  8.03562333E-05  1.14355380E-04  7.20686266E-05 -1.29957959E-04  1.20208829E-04
 -3.05269833E-04 -1.15729709E-04 -1.42882196E-04 -2.96167067E-04 -6.00257520E-05
 -7.41089852E-05 -1.53613546E-04  4.98359164E-05 -4.87486785E-05 -8.01666502E-05
  3.94029676E-05  5.53534624E-05 -6.05069580E-06  3.48430994E-05  4.89477394E-05
 -8.65007158E-06  1.38304022E-04  1.94046262E-04  1.19050032E-04  4.38997448E-06
 -4.18601722E-06  3.50345598E-04 -9.39897844E-05  5.59797431E-05  1.30641153E-04
 -4.87014504E-05  2.90062872E-05  6.76926080E-05 -2.53607757E-04 -6.38414431E-05
 -8.85325065E-05  3.07692368E-05  4.31705116E-05  2.64856985E-05 -4.73422906E-05
  4.51427781E-05 -2.04580954E-04 -9.52970430E-05  1.69957730E-04  3.23883883E-04
 -4.93788154E-05  8.80647618E-05  1.67822651E-04  9.14675803E-05 -5.35880406E-05
 -9.98025532E-05 -5.69556845E-05 -8.00115962E-05  5.03843889E-05  5.55774308E-05
  7.80754194E-05  1.00722265E-04 -5.20264277E-05 -7.30869547E-05  3.40684838E-05
 -3.53581034E-05 -4.96088812E-05 -3.04357262E-05 -1.72561738E-05  1.64544557E-05
  1.73716242E-04  3.51875083E-04  2.73921116E-05  9.56913441E-05  1.82326484E-04
  1.41934102E-05  4.95831252E-05  6.02262261E-05  7.56430598E-06 -4.01658313E-06
 -1.70194886E-05 -2.39090525E-05 -2.73145349E-05 -1.76059583E-05 -2.47329278E-05
 -1.70422795E-05 -4.13765444E-05 -5.81259517E-05  2.65289166E-05
MO  11                    OCC NO =   1.00000000 ORB. ENERGY = -38.18416371
 -7.52993874E+00 -1.08360952E+01 -3.99016538E+00 -6.32083301E+00  1.08068588E+00
 -7.06661193E-02  4.53630425E+00  3.59387756E-02  3.74365444E-02  2.24821884E-03
 -2.26545096E-03  2.60340116E-07  2.15438507E-02  1.04483959E-01 -5.96454935E-02