3
	Energy:       2.8816337
Li        -0.97154       -0.42420        0.00000
He         0.11660        0.66329       -0.00000
H          0.85494       -0.23909        0.00000
