 acetylene B3LYP/6-311++G(2d,2p)                         
GAUSSIAN              7 MOL ORBITALS    108 PRIMITIVES        4 NUCLEI
  C    1    (CENTRE  1)   0.00000000  0.00000000  1.13026788  CHARGE =  6.0
  C    2    (CENTRE  2)   0.00000000  0.00000000 -1.13026788  CHARGE =  6.0
  H    3    (CENTRE  3)   0.00000000  0.00000000 -3.13613091  CHARGE =  1.0
  H    4    (CENTRE  4)   0.00000000  0.00000000  3.13613091  CHARGE =  1.0
CENTRE ASSIGNMENTS    1  1  1  1  1  1  1  1  1  1  1  1  1  1  1  1  1  1  1  1
CENTRE ASSIGNMENTS    1  1  1  1  1  1  1  1  1  1  1  1  1  1  1  1  1  1  1  1
CENTRE ASSIGNMENTS    1  1  2  2  2  2  2  2  2  2  2  2  2  2  2  2  2  2  2  2
CENTRE ASSIGNMENTS    2  2  2  2  2  2  2  2  2  2  2  2  2  2  2  2  2  2  2  2
CENTRE ASSIGNMENTS    2  2  2  2  3  3  3  3  3  3  3  3  3  3  3  3  4  4  4  4
CENTRE ASSIGNMENTS    4  4  4  4  4  4  4  4
TYPE ASSIGNMENTS      1  1  1  1  1  1  1  1  1  2  2  2  3  3  3  4  4  4  1  2
TYPE ASSIGNMENTS      3  4  1  2  3  4  1  2  3  4  5  6  7  8  9 10  5  6  7  8
TYPE ASSIGNMENTS      9 10  1  1  1  1  1  1  1  1  1  2  2  2  3  3  3  4  4  4
TYPE ASSIGNMENTS      1  2  3  4  1  2  3  4  1  2  3  4  5  6  7  8  9 10  5  6
TYPE ASSIGNMENTS      7  8  9 10  1  1  1  1  1  1  2  3  4  2  3  4  1  1  1  1
TYPE ASSIGNMENTS      1  1  2  3  4  2  3  4
EXPONENTS  0.4563240D+04 0.6820240D+03 0.1549730D+03 0.4445530D+02 0.1302900D+02
EXPONENTS  0.1827730D+01 0.2096420D+02 0.4803310D+01 0.1459330D+01 0.2096420D+02
EXPONENTS  0.4803310D+01 0.1459330D+01 0.2096420D+02 0.4803310D+01 0.1459330D+01
EXPONENTS  0.2096420D+02 0.4803310D+01 0.1459330D+01 0.4834560D+00 0.4834560D+00
EXPONENTS  0.4834560D+00 0.4834560D+00 0.1455850D+00 0.1455850D+00 0.1455850D+00
EXPONENTS  0.1455850D+00 0.4380000D-01 0.4380000D-01 0.4380000D-01 0.4380000D-01
EXPONENTS  0.1252000D+01 0.1252000D+01 0.1252000D+01 0.1252000D+01 0.1252000D+01
EXPONENTS  0.1252000D+01 0.3130000D+00 0.3130000D+00 0.3130000D+00 0.3130000D+00
EXPONENTS  0.3130000D+00 0.3130000D+00 0.4563240D+04 0.6820240D+03 0.1549730D+03
EXPONENTS  0.4445530D+02 0.1302900D+02 0.1827730D+01 0.2096420D+02 0.4803310D+01
EXPONENTS  0.1459330D+01 0.2096420D+02 0.4803310D+01 0.1459330D+01 0.2096420D+02
EXPONENTS  0.4803310D+01 0.1459330D+01 0.2096420D+02 0.4803310D+01 0.1459330D+01
EXPONENTS  0.4834560D+00 0.4834560D+00 0.4834560D+00 0.4834560D+00 0.1455850D+00
EXPONENTS  0.1455850D+00 0.1455850D+00 0.1455850D+00 0.4380000D-01 0.4380000D-01
EXPONENTS  0.4380000D-01 0.4380000D-01 0.1252000D+01 0.1252000D+01 0.1252000D+01
EXPONENTS  0.1252000D+01 0.1252000D+01 0.1252000D+01 0.3130000D+00 0.3130000D+00
EXPONENTS  0.3130000D+00 0.3130000D+00 0.3130000D+00 0.3130000D+00 0.3386500D+02
EXPONENTS  0.5094790D+01 0.1158790D+01 0.3258400D+00 0.1027410D+00 0.3600000D-01
EXPONENTS  0.1500000D+01 0.1500000D+01 0.1500000D+01 0.3750000D+00 0.3750000D+00
EXPONENTS  0.3750000D+00 0.3386500D+02 0.5094790D+01 0.1158790D+01 0.3258400D+00
EXPONENTS  0.1027410D+00 0.3600000D-01 0.1500000D+01 0.1500000D+01 0.1500000D+01
EXPONENTS  0.3750000D+00 0.3750000D+00 0.3750000D+00
MO    1     MO 0.0        OCC NO =    2.0000000  ORB. ENERGY =  -10.182171
  0.30951727D+00  0.57619514D+00  0.94783558D+00  0.12727841D+01  0.11983742D+01
  0.98478387D-01  0.26247340D+00  0.69744097D+00 -0.94019915D-03 -0.45610358D-04
 -0.42680058D-04 -0.33057354D-04  0.26986891D-15  0.25253081D-15  0.19559488D-15
 -0.99709732D-03 -0.93303742D-03 -0.72267355D-03  0.42499270D-02  0.29402732D-05
 -0.13729029D-15  0.29412210D-02  0.12403472D-02 -0.30042976D-06  0.85168342D-17
  0.65476336D-03  0.46134244D-04  0.74987575D-08  0.55452775D-18  0.40039335D-05
 -0.89982766D-03 -0.89976488D-03  0.17995925D-02 -0.91629496D-15 -0.44238127D-06
  0.82363462D-15 -0.52943647D-03 -0.52943252D-03  0.10588690D-02  0.28797772D-16
  0.26435450D-06  0.11768062D-15  0.30951727D+00  0.57619514D+00  0.94783558D+00
  0.12727841D+01  0.11983742D+01  0.98478387D-01  0.26247340D+00  0.69744097D+00
 -0.94019914D-03 -0.45610358D-04 -0.42680058D-04 -0.33057354D-04 -0.42233462D-15
 -0.39520115D-15 -0.30609856D-15  0.99709732D-03  0.93303742D-03  0.72267355D-03
  0.42499270D-02  0.29402732D-05  0.19915167D-15 -0.29412210D-02  0.12403472D-02
 -0.30042976D-06 -0.19820917D-16 -0.65476337D-03  0.46134245D-04  0.74987575D-08
  0.38214493D-18 -0.40039333D-05 -0.89982766D-03 -0.89976488D-03  0.17995925D-02
 -0.18645972D-14  0.44238127D-06 -0.80969054D-15 -0.52943647D-03 -0.52943252D-03
  0.10588690D-02  0.72978412D-16 -0.26435450D-06  0.20021491D-15  0.80450103D-04
  0.14512051D-03  0.21394588D-03 -0.39095644D-02 -0.36307609D-03 -0.15800895D-04
 -0.27198962D-06 -0.33836905D-15 -0.17488250D-02 -0.24902969D-06  0.18449067D-15
 -0.22082856D-02  0.80450103D-04  0.14512051D-03  0.21394588D-03 -0.39095644D-02
 -0.36307609D-03 -0.15800895D-04 -0.27198962D-06  0.62863760D-16  0.17488250D-02
 -0.24902969D-06 -0.13480444D-15  0.22082856D-02
MO    2     MO 0.0        OCC NO =    2.0000000  ORB. ENERGY =  -10.179612
  0.30984598D+00  0.57680705D+00  0.94884218D+00  0.12741358D+01  0.11996469D+01
  0.98582971D-01  0.26174959D+00  0.69551767D+00 -0.93760640D-03 -0.47733906D-04
 -0.44667175D-04 -0.34596454D-04 -0.19297458D-16 -0.18057666D-16 -0.13986360D-16
  0.23373973D-02  0.21872280D-02  0.16940926D-02  0.86614707D-02  0.49664524D-05
  0.44735806D-16 -0.49473265D-02  0.68933990D-02 -0.38383370D-06  0.17479895D-16
 -0.14914723D-02 -0.30014373D-02  0.68243460D-07 -0.21229902D-17  0.28424463D-03
 -0.23710720D-02 -0.23710453D-02  0.47421173D-02 -0.12495209D-15  0.77659424D-06
  0.36427620D-15 -0.10930447D-02 -0.10930417D-02  0.21860863D-02  0.96634278D-17
 -0.19832064D-05 -0.10286714D-15 -0.30984598D+00 -0.57680705D+00 -0.94884218D+00
 -0.12741358D+01 -0.11996469D+01 -0.98582971D-01 -0.26174959D+00 -0.69551767D+00
  0.93760640D-03  0.47733906D-04  0.44667175D-04  0.34596454D-04  0.13700155D-16
  0.12819970D-16  0.99295621D-17  0.23373973D-02  0.21872280D-02  0.16940926D-02
 -0.86614707D-02 -0.49664524D-05 -0.37923781D-16 -0.49473265D-02 -0.68933990D-02
  0.38383370D-06 -0.18127369D-16 -0.14914723D-02  0.30014373D-02 -0.68243460D-07
  0.27279960D-17  0.28424463D-03  0.23710720D-02  0.23710453D-02 -0.47421173D-02
  0.12886630D-15  0.77659424D-06  0.24247599D-15  0.10930447D-02  0.10930417D-02
 -0.21860863D-02 -0.10008951D-16 -0.19832064D-05 -0.86606558D-16  0.16732821D-04
  0.30183621D-04  0.44498614D-04  0.34398526D-02 -0.10098809D-03 -0.84421787D-05
  0.72410948D-06  0.49331557D-17  0.12734963D-02 -0.88248794D-06 -0.35612973D-16
  0.14955131D-02 -0.16732821D-04 -0.30183621D-04 -0.44498614D-04 -0.34398526D-02
  0.10098809D-03  0.84421787D-05 -0.72410948D-06 -0.16019366D-15  0.12734963D-02
  0.88248794D-06  0.59908141D-16  0.14955131D-02
MO    3     MO 0.0        OCC NO =    2.0000000  ORB. ENERGY =   -0.762129
 -0.74399680D-01 -0.13850191D+00 -0.22783434D+00 -0.30594328D+00 -0.28805713D+00
 -0.23671572D-01 -0.11832601D+00 -0.31441437D+00  0.42385253D-03 -0.14327234D-02
 -0.13406761D-02 -0.10384054D-02 -0.29549653D-15 -0.27651195D-15 -0.21416919D-15
 -0.21149750D+00 -0.19790955D+00 -0.15328860D+00  0.16086701D+00 -0.45099279D-03
 -0.12169749D-15 -0.53232763D-01  0.25011165D-01 -0.20004307D-03 -0.12198463D-15
 -0.34444062D-02 -0.40919800D-03 -0.56727208D-05  0.39473009D-17 -0.74797304D-04
 -0.21418113D-01 -0.21415494D-01  0.42833608D-01  0.25666459D-15  0.22139858D-03
 -0.16855804D-15  0.55744075D-03  0.55487285D-03 -0.11123136D-02  0.96585097D-17
  0.34715037D-04  0.49960895D-15 -0.74399680D-01 -0.13850191D+00 -0.22783434D+00
 -0.30594328D+00 -0.28805713D+00 -0.23671572D-01 -0.11832601D+00 -0.31441437D+00
  0.42385253D-03 -0.14327234D-02 -0.13406761D-02 -0.10384054D-02  0.13932704D-15
  0.13037579D-15  0.10098109D-15  0.21149750D+00  0.19790955D+00  0.15328860D+00
  0.16086701D+00 -0.45099279D-03  0.48216775D-16  0.53232763D-01  0.25011165D-01
 -0.20004307D-03  0.11387548D-15  0.34444062D-02 -0.40919803D-03 -0.56727208D-05
 -0.56250722D-17  0.74797299D-04 -0.21418113D-01 -0.21415494D-01  0.42833608D-01
  0.55224889D-15 -0.22139858D-03 -0.14893830D-15  0.55744075D-03  0.55487285D-03
 -0.11123136D-02 -0.29094371D-16 -0.34715037D-04  0.36749208D-15  0.11470208D-01
  0.20690618D-01  0.30503425D-01  0.21715880D-01  0.19171019D-02  0.27666552D-03
 -0.56936806D-04 -0.19747572D-16  0.66138010D-02 -0.74703899D-04  0.11690689D-15
  0.55875127D-02  0.11470208D-01  0.20690618D-01  0.30503425D-01  0.21715880D-01
  0.19171019D-02  0.27666553D-03 -0.56936806D-04  0.17779096D-15 -0.66138010D-02
 -0.74703899D-04 -0.25444899D-15 -0.55875127D-02
MO    4     MO 0.0        OCC NO =    2.0000000  ORB. ENERGY =   -0.575284
 -0.48460356D-01 -0.90213451D-01 -0.14840028D+00 -0.19927667D+00 -0.18762650D+00
 -0.15418518D-01 -0.78745389D-01 -0.20924124D+00  0.28207181D-03 -0.11216348D-02
 -0.10495738D-02 -0.81293546D-03 -0.38414469D-17 -0.35946478D-17 -0.27841937D-17
  0.24682740D+00  0.23096963D+00  0.17889491D+00  0.11005562D+00 -0.28146148D-03
  0.28553762D-15  0.72111473D-01  0.37625347D-01 -0.41431243D-03  0.87213572D-16
  0.49113358D-02 -0.16824504D-01 -0.62884184D-04  0.41042642D-17  0.19876983D-02
 -0.13129150D-01 -0.13125737D-01  0.26254887D-01 -0.11852586D-16 -0.33956661D-03
  0.19547787D-14 -0.83022860D-03 -0.83397054D-03  0.16641991D-02  0.14581463D-16
  0.20735768D-04 -0.34582683D-15  0.48460356D-01  0.90213451D-01  0.14840028D+00
  0.19927667D+00  0.18762650D+00  0.15418518D-01  0.78745389D-01  0.20924124D+00
 -0.28207181D-03  0.11216348D-02  0.10495738D-02  0.81293546D-03  0.46257906D-15
  0.43286003D-15  0.33526682D-15  0.24682740D+00  0.23096963D+00  0.17889491D+00
 -0.11005562D+00  0.28146148D-03 -0.60572260D-16  0.72111473D-01 -0.37625347D-01
  0.41431243D-03 -0.48397476D-16  0.49113358D-02  0.16824504D-01  0.62884184D-04
 -0.43485634D-17  0.19876983D-02  0.13129150D-01  0.13125737D-01 -0.26254887D-01
  0.27335308D-16 -0.33956661D-03  0.19966473D-14  0.83022860D-03  0.83397054D-03
 -0.16641991D-02 -0.19302394D-16  0.20735768D-04 -0.42020606D-15 -0.34732833D-01
 -0.62653076D-01 -0.92367149D-01 -0.53994726D-01 -0.51932656D-02  0.64353123D-03
  0.57560672D-04  0.11085364D-14 -0.27037245D-01  0.34779955D-03 -0.30388202D-15
 -0.46711519D-02  0.34732833D-01  0.62653076D-01  0.92367149D-01  0.53994726D-01
  0.51932656D-02 -0.64353123D-03 -0.57560672D-04 -0.98279760D-15 -0.27037245D-01
 -0.34779955D-03  0.21495710D-15 -0.46711519D-02
MO    5     MO 0.0        OCC NO =    2.0000000  ORB. ENERGY =   -0.506773
 -0.10803798D-02 -0.20112273D-02 -0.33084500D-02 -0.44426931D-02 -0.41829630D-02
 -0.34374192D-03 -0.15312054D-02 -0.40686995D-02  0.54848911D-05 -0.12076525D-02
 -0.11300652D-02 -0.87527918D-03 -0.39207473D-15 -0.36688535D-15 -0.28416689D-15
  0.49549786D+00  0.46366391D+00  0.35912562D+00 -0.63882325D-02 -0.30122533D-03
  0.28101259D-16  0.14199574D+00  0.19242145D-01 -0.88191644D-04  0.10136671D-17
  0.13922447D-01 -0.51772228D-03 -0.22149173D-04 -0.63990503D-17  0.28583158D-03
  0.46800589D-02  0.46827920D-02 -0.93628509D-02  0.57021524D-16  0.23573654D-04
 -0.80548095D-16 -0.40150299D-02 -0.40174261D-02  0.80324560D-02 -0.19115428D-16
 -0.18182105D-03 -0.26299676D-16 -0.10803798D-02 -0.20112273D-02 -0.33084500D-02
 -0.44426931D-02 -0.41829630D-02 -0.34374192D-03 -0.15312054D-02 -0.40686995D-02
  0.54848911D-05 -0.12076525D-02 -0.11300652D-02 -0.87527918D-03 -0.73982410D-15
 -0.69229308D-15 -0.53620775D-15 -0.49549786D+00 -0.46366391D+00 -0.35912562D+00
 -0.63882325D-02 -0.30122533D-03 -0.43999101D-16 -0.14199574D+00  0.19242145D-01
 -0.88191644D-04 -0.50224247D-16 -0.13922447D-01 -0.51772230D-03 -0.22149173D-04
  0.67224280D-17 -0.28583158D-03  0.46800589D-02  0.46827920D-02 -0.93628509D-02
 -0.53059192D-16 -0.23573654D-04 -0.75296241D-16 -0.40150299D-02 -0.40174261D-02
  0.80324560D-02  0.19757412D-16  0.18182105D-03  0.33491484D-16  0.35529718D-01
  0.64090543D-01  0.94486353D-01  0.44961222D-01  0.53754853D-02  0.50633364D-03
  0.10355904D-03 -0.12280784D-15  0.30128584D-01 -0.48478534D-03  0.51302145D-16
 -0.19044249D-02  0.35529718D-01  0.64090543D-01  0.94486353D-01  0.44961222D-01
  0.53754853D-02  0.50633364D-03  0.10355904D-03 -0.22347685D-15 -0.30128584D-01
 -0.48478534D-03  0.68460009D-16  0.19044249D-02
MO    6     MO 0.0        OCC NO =    2.0000000  ORB. ENERGY =   -0.301945
 -0.59814905D-03 -0.11135100D-02 -0.18317135D-02 -0.24596837D-02 -0.23158850D-02
 -0.19031168D-03 -0.10046994D-02 -0.26696743D-02  0.35989075D-05  0.49849221D+00
  0.46646588D+00  0.36129586D+00 -0.60003515D-11 -0.56148506D-11 -0.43489188D-11
  0.26153310D-03  0.24473055D-03  0.18955327D-03  0.20111007D-02  0.16389424D+00
 -0.19727953D-11 -0.22927565D-03  0.57104467D-04  0.27087169D-01 -0.32609821D-12
 -0.53871648D-04 -0.32156943D-03  0.75334647D-03 -0.89949168D-14  0.13004103D-03
 -0.22719991D-03 -0.47339226D-03  0.70059217D-03 -0.28914823D-14 -0.59239446D-01
  0.71335435D-12 -0.31353391D-03  0.35872902D-03 -0.45195108D-04  0.81193845D-14
 -0.67413896D-02  0.81111758D-13 -0.59814905D-03 -0.11135100D-02 -0.18317135D-02
 -0.24596837D-02 -0.23158850D-02 -0.19031168D-03 -0.10046994D-02 -0.26696743D-02
  0.35989075D-05  0.49849221D+00  0.46646588D+00  0.36129586D+00 -0.60002109D-11
 -0.56147190D-11 -0.43488169D-11 -0.26153310D-03 -0.24473055D-03 -0.18955327D-03
  0.20111007D-02  0.16389424D+00 -0.19726199D-11  0.22927565D-03  0.57104466D-04
  0.27087169D-01 -0.32620854D-12  0.53871648D-04 -0.32156944D-03  0.75334647D-03
 -0.89578897D-14 -0.13004103D-03 -0.22719991D-03 -0.47339226D-03  0.70059217D-03
 -0.30918673D-14  0.59239446D-01 -0.71244076D-12 -0.31353391D-03  0.35872902D-03
 -0.45195108D-04  0.80725240D-14  0.67413896D-02 -0.81124324D-13  0.32706405D-03
  0.58997688D-03  0.86978143D-03  0.12057029D-02  0.35191931D-03 -0.15152438D-03
  0.12647438D-01 -0.15241171D-12  0.29054515D-03  0.98814916D-02 -0.11897909D-12
  0.27315435D-03  0.32706405D-03  0.58997688D-03  0.86978143D-03  0.12057029D-02
  0.35191931D-03 -0.15152438D-03  0.12647438D-01 -0.15184514D-12 -0.29054515D-03
  0.98814916D-02 -0.11907538D-12 -0.27315435D-03
MO    7     MO 0.0        OCC NO =    2.0000000  ORB. ENERGY =   -0.301926
 -0.72250183D-14 -0.13450042D-13 -0.22125193D-13 -0.29710421D-13 -0.27973481D-13
 -0.22987672D-14 -0.12153374D-13 -0.32293790D-13  0.43534285D-16  0.59983040D-11
  0.56129346D-11  0.43474348D-11  0.49861029D+00  0.46657638D+00  0.36138144D+00
  0.36155113D-14  0.33832278D-14  0.26204407D-14  0.23007930D-13  0.19721670D-11
  0.16392642D+00 -0.57274976D-14  0.33624430D-13  0.32602222D-12  0.27101560D-01
 -0.19933504D-13  0.11023945D-12  0.90461998D-14  0.74587506D-03 -0.13736212D-13
 -0.27044993D-14 -0.50916011D-14  0.77961004D-14  0.24591343D-03 -0.71337879D-12
 -0.59258527D-01 -0.48261750D-14  0.32071234D-14  0.16190516D-14 -0.67221920D-03
 -0.81107775D-13 -0.67417371D-02 -0.72340177D-14 -0.13466795D-13 -0.22152752D-13
 -0.29747428D-13 -0.28008325D-13 -0.23016305D-14 -0.12091797D-13 -0.32130168D-13
  0.43313711D-16  0.59982749D-11  0.56129075D-11  0.43474138D-11  0.49861029D+00
  0.46657638D+00  0.36138144D+00 -0.18240731D-14 -0.17068830D-14 -0.13220468D-14
  0.23642472D-13  0.19721291D-11  0.16392642D+00 -0.28586594D-14 -0.28365152D-13
  0.32599873D-12  0.27101560D-01 -0.19768499D-13 -0.11637440D-12  0.90652358D-14
  0.74587506D-03 -0.17460299D-13 -0.29045488D-14 -0.57474862D-14  0.86520349D-14
  0.24591343D-03  0.71337690D-12  0.59258527D-01 -0.35856928D-14  0.45411356D-14
 -0.95544282D-15 -0.67221920D-03  0.81088125D-13  0.67417371D-02  0.43281737D-14
  0.78074078D-14  0.11510177D-13  0.82248849D-14 -0.10743741D-13 -0.13471231D-13
  0.15210299D-12  0.12645616D-01  0.42467569D-14  0.11896221D-12  0.98895095D-02
 -0.28702336D-15  0.36712924D-14  0.66224877D-14  0.97632925D-14  0.16665738D-13
  0.16891357D-13  0.87360441D-14  0.15208484D-12  0.12645616D-01 -0.24790931D-14
  0.11894961D-12  0.98895095D-02 -0.45159537D-14
END DATA
 THE  HF ENERGY =    -77.359524763553 THE VIRIAL(-V/T)=   2.00453753
