 acetylene B3LYP/6-311++G(2d,2p)                         
GAUSSIAN              7 MOL ORBITALS    108 PRIMITIVES        4 NUCLEI
  C    1    (CENTRE  1)   0.00000000  0.00000000  1.13026788  CHARGE =  6.0
  C    2    (CENTRE  2)   0.00000000  0.00000000 -1.13026788  CHARGE =  6.0
  H    3    (CENTRE  3)   0.00000000  0.00000000 -3.13613091  CHARGE =  1.0
  H    4    (CENTRE  4)   0.00000000  0.00000000  3.13613091  CHARGE =  1.0
CENTRE ASSIGNMENTS    1  1  1  1  1  1  1  1  1  1  1  1  1  1  1  1  1  1  1  1
CENTRE ASSIGNMENTS    1  1  1  1  1  1  1  1  1  1  1  1  1  1  1  1  1  1  1  1
CENTRE ASSIGNMENTS    1  1  2  2  2  2  2  2  2  2  2  2  2  2  2  2  2  2  2  2
CENTRE ASSIGNMENTS    2  2  2  2  2  2  2  2  2  2  2  2  2  2  2  2  2  2  2  2
CENTRE ASSIGNMENTS    2  2  2  2  3  3  3  3  3  3  3  3  3  3  3  3  4  4  4  4
CENTRE ASSIGNMENTS    4  4  4  4  4  4  4  4
TYPE ASSIGNMENTS      1  1  1  1  1  1  1  1  1  2  2  2  3  3  3  4  4  4  1  2
TYPE ASSIGNMENTS      3  4  1  2  3  4  1  2  3  4  5  6  7  8  9 10  5  6  7  8
TYPE ASSIGNMENTS      9 10  1  1  1  1  1  1  1  1  1  2  2  2  3  3  3  4  4  4
TYPE ASSIGNMENTS      1  2  3  4  1  2  3  4  1  2  3  4  5  6  7  8  9 10  5  6
TYPE ASSIGNMENTS      7  8  9 10  1  1  1  1  1  1  2  3  4  2  3  4  1  1  1  1
TYPE ASSIGNMENTS      1  1  2  3  4  2  3  4
EXPONENTS  0.4563240D+04 0.6820240D+03 0.1549730D+03 0.4445530D+02 0.1302900D+02
EXPONENTS  0.1827730D+01 0.2096420D+02 0.4803310D+01 0.1459330D+01 0.2096420D+02
EXPONENTS  0.4803310D+01 0.1459330D+01 0.2096420D+02 0.4803310D+01 0.1459330D+01
EXPONENTS  0.2096420D+02 0.4803310D+01 0.1459330D+01 0.4834560D+00 0.4834560D+00
EXPONENTS  0.4834560D+00 0.4834560D+00 0.1455850D+00 0.1455850D+00 0.1455850D+00
EXPONENTS  0.1455850D+00 0.4380000D-01 0.4380000D-01 0.4380000D-01 0.4380000D-01
EXPONENTS  0.1252000D+01 0.1252000D+01 0.1252000D+01 0.1252000D+01 0.1252000D+01
EXPONENTS  0.1252000D+01 0.3130000D+00 0.3130000D+00 0.3130000D+00 0.3130000D+00
EXPONENTS  0.3130000D+00 0.3130000D+00 0.4563240D+04 0.6820240D+03 0.1549730D+03
EXPONENTS  0.4445530D+02 0.1302900D+02 0.1827730D+01 0.2096420D+02 0.4803310D+01
EXPONENTS  0.1459330D+01 0.2096420D+02 0.4803310D+01 0.1459330D+01 0.2096420D+02
EXPONENTS  0.4803310D+01 0.1459330D+01 0.2096420D+02 0.4803310D+01 0.1459330D+01
EXPONENTS  0.4834560D+00 0.4834560D+00 0.4834560D+00 0.4834560D+00 0.1455850D+00
EXPONENTS  0.1455850D+00 0.1455850D+00 0.1455850D+00 0.4380000D-01 0.4380000D-01
EXPONENTS  0.4380000D-01 0.4380000D-01 0.1252000D+01 0.1252000D+01 0.1252000D+01
EXPONENTS  0.1252000D+01 0.1252000D+01 0.1252000D+01 0.3130000D+00 0.3130000D+00
EXPONENTS  0.3130000D+00 0.3130000D+00 0.3130000D+00 0.3130000D+00 0.3386500D+02
EXPONENTS  0.5094790D+01 0.1158790D+01 0.3258400D+00 0.1027410D+00 0.3600000D-01
EXPONENTS  0.1500000D+01 0.1500000D+01 0.1500000D+01 0.3750000D+00 0.3750000D+00
EXPONENTS  0.3750000D+00 0.3386500D+02 0.5094790D+01 0.1158790D+01 0.3258400D+00
EXPONENTS  0.1027410D+00 0.3600000D-01 0.1500000D+01 0.1500000D+01 0.1500000D+01
EXPONENTS  0.3750000D+00 0.3750000D+00 0.3750000D+00
MO    1     MO 0.0        OCC NO =    2.0000000  ORB. ENERGY =  -10.182171
  0.30951727D+00  0.57619514D+00  0.94783558D+00  0.12727841D+01  0.11983742D+01
  0.98478387D-01  0.26247340D+00  0.69744097D+00 -0.94019915D-03  0.45610358D-04
  0.42680058D-04  0.33057354D-04 -0.26631734D-15 -0.24920741D-15 -0.19302077D-15
 -0.99709732D-03 -0.93303742D-03 -0.72267355D-03  0.42499270D-02 -0.29402732D-05
  0.32290762D-16  0.29412210D-02  0.12403472D-02  0.30042976D-06 -0.13012761D-16
  0.65476336D-03  0.46134244D-04 -0.74987575D-08  0.13503409D-17  0.40039334D-05
 -0.89982766D-03 -0.89976488D-03  0.17995925D-02 -0.19073901D-14  0.44238127D-06
  0.51504445D-15 -0.52943647D-03 -0.52943252D-03  0.10588690D-02  0.10732868D-15
 -0.26435450D-06  0.14024808D-17  0.30951727D+00  0.57619514D+00  0.94783558D+00
  0.12727841D+01  0.11983742D+01  0.98478387D-01  0.26247340D+00  0.69744097D+00
 -0.94019915D-03  0.45610358D-04  0.42680058D-04  0.33057354D-04 -0.23223187D-15
 -0.21731181D-15 -0.16831640D-15  0.99709732D-03  0.93303742D-03  0.72267355D-03
  0.42499270D-02 -0.29402732D-05  0.33674488D-16 -0.29412210D-02  0.12403472D-02
  0.30042976D-06  0.16791277D-18 -0.65476337D-03  0.46134245D-04 -0.74987576D-08
 -0.73301879D-18 -0.40039334D-05 -0.89982766D-03 -0.89976488D-03  0.17995925D-02
  0.13113942D-14 -0.44238127D-06  0.23258742D-15 -0.52943647D-03 -0.52943252D-03
  0.10588690D-02 -0.86159450D-16  0.26435450D-06 -0.11586852D-16  0.80450103D-04
  0.14512051D-03  0.21394588D-03 -0.39095644D-02 -0.36307609D-03 -0.15800895D-04
  0.27198962D-06 -0.22275941D-15 -0.17488250D-02  0.24902969D-06 -0.60246946D-17
 -0.22082856D-02  0.80450103D-04  0.14512051D-03  0.21394588D-03 -0.39095644D-02
 -0.36307609D-03 -0.15800895D-04  0.27198962D-06  0.51503635D-15  0.17488250D-02
  0.24902969D-06 -0.40564685D-16  0.22082856D-02
MO    2     MO 0.0        OCC NO =    2.0000000  ORB. ENERGY =  -10.179612
  0.30984598D+00  0.57680705D+00  0.94884218D+00  0.12741358D+01  0.11996469D+01
  0.98582971D-01  0.26174959D+00  0.69551767D+00 -0.93760640D-03  0.47733906D-04
  0.44667175D-04  0.34596454D-04 -0.10794232D-16 -0.10100742D-16 -0.78234148D-17
  0.23373973D-02  0.21872280D-02  0.16940926D-02  0.86614707D-02 -0.49664524D-05
  0.87540206D-17 -0.49473265D-02  0.68933990D-02  0.38383370D-06  0.26815424D-16
 -0.14914723D-02 -0.30014373D-02 -0.68243460D-07 -0.32873068D-17  0.28424463D-03
 -0.23710720D-02 -0.23710453D-02  0.47421173D-02  0.18484754D-15 -0.77659424D-06
 -0.18289171D-16 -0.10930447D-02 -0.10930417D-02  0.21860863D-02 -0.20594186D-17
  0.19832064D-05 -0.60973586D-16 -0.30984598D+00 -0.57680705D+00 -0.94884218D+00
 -0.12741358D+01 -0.11996469D+01 -0.98582971D-01 -0.26174959D+00 -0.69551767D+00
  0.93760640D-03 -0.47733906D-04 -0.44667175D-04 -0.34596454D-04  0.89452649D-16
  0.83705640D-16  0.64833254D-16  0.23373973D-02  0.21872280D-02  0.16940926D-02
 -0.86614707D-02  0.49664524D-05 -0.19312796D-16 -0.49473265D-02 -0.68933990D-02
 -0.38383370D-06 -0.27030426D-16 -0.14914723D-02  0.30014373D-02  0.68243460D-07
  0.32136330D-17  0.28424463D-03  0.23710720D-02  0.23710453D-02 -0.47421173D-02
 -0.19257451D-15 -0.77659424D-06 -0.15152760D-15  0.10930447D-02  0.10930417D-02
 -0.21860863D-02  0.23197502D-17  0.19832064D-05 -0.40559790D-16  0.16732821D-04
  0.30183621D-04  0.44498614D-04  0.34398526D-02 -0.10098809D-03 -0.84421787D-05
 -0.72410948D-06 -0.12266725D-15  0.12734963D-02  0.88248794D-06  0.19997752D-17
  0.14955131D-02 -0.16732821D-04 -0.30183621D-04 -0.44498614D-04 -0.34398526D-02
  0.10098809D-03  0.84421787D-05  0.72410948D-06 -0.12706714D-15  0.12734963D-02
 -0.88248794D-06  0.35899671D-16  0.14955131D-02
MO    3     MO 0.0        OCC NO =    2.0000000  ORB. ENERGY =   -0.762129
 -0.74399680D-01 -0.13850191D+00 -0.22783434D+00 -0.30594328D+00 -0.28805713D+00
 -0.23671572D-01 -0.11832601D+00 -0.31441437D+00  0.42385253D-03  0.14327234D-02
  0.13406761D-02  0.10384054D-02  0.13261352D-15  0.12409358D-15  0.96115273D-16
 -0.21149750D+00 -0.19790955D+00 -0.15328860D+00  0.16086701D+00  0.45099279D-03
 -0.20673460D-15 -0.53232763D-01  0.25011165D-01  0.20004307D-03 -0.94871041D-16
 -0.34444062D-02 -0.40919802D-03  0.56727208D-05  0.50177451D-17 -0.74797301D-04
 -0.21418113D-01 -0.21415494D-01  0.42833608D-01  0.15442138D-15 -0.22139858D-03
 -0.27516732D-15  0.55744075D-03  0.55487285D-03 -0.11123136D-02 -0.28062741D-16
 -0.34715037D-04  0.32033263D-15 -0.74399680D-01 -0.13850191D+00 -0.22783434D+00
 -0.30594328D+00 -0.28805713D+00 -0.23671572D-01 -0.11832601D+00 -0.31441437D+00
  0.42385253D-03  0.14327234D-02  0.13406761D-02  0.10384054D-02 -0.32827965D-15
 -0.30718887D-15 -0.23792966D-15  0.21149750D+00  0.19790955D+00  0.15328860D+00
  0.16086701D+00  0.45099279D-03  0.22228651D-15  0.53232763D-01  0.25011165D-01
  0.20004307D-03  0.72386639D-16  0.34444062D-02 -0.40919801D-03  0.56727208D-05
 -0.53670893D-17  0.74797302D-04 -0.21418113D-01 -0.21415494D-01  0.42833608D-01
  0.13951637D-15  0.22139858D-03 -0.53828347D-15  0.55744075D-03  0.55487285D-03
 -0.11123136D-02  0.79210881D-17  0.34715037D-04  0.36219008D-15  0.11470208D-01
  0.20690618D-01  0.30503425D-01  0.21715880D-01  0.19171019D-02  0.27666552D-03
  0.56936806D-04  0.11202270D-15  0.66138010D-02  0.74703899D-04  0.17516207D-15
  0.55875127D-02  0.11470208D-01  0.20690618D-01  0.30503425D-01  0.21715880D-01
  0.19171019D-02  0.27666552D-03  0.56936806D-04 -0.22131068D-15 -0.66138010D-02
  0.74703899D-04 -0.68753951D-16 -0.55875127D-02
MO    4     MO 0.0        OCC NO =    2.0000000  ORB. ENERGY =   -0.575284
 -0.48460356D-01 -0.90213451D-01 -0.14840028D+00 -0.19927667D+00 -0.18762650D+00
 -0.15418518D-01 -0.78745389D-01 -0.20924124D+00  0.28207181D-03  0.11216348D-02
  0.10495738D-02  0.81293546D-03 -0.11956118D-15 -0.11187980D-15 -0.86655232D-16
  0.24682740D+00  0.23096963D+00  0.17889491D+00  0.11005562D+00  0.28146148D-03
  0.21656824D-15  0.72111473D-01  0.37625347D-01  0.41431243D-03  0.88372791D-16
  0.49113358D-02 -0.16824504D-01  0.62884184D-04  0.33283181D-17  0.19876983D-02
 -0.13129150D-01 -0.13125737D-01  0.26254887D-01 -0.61571857D-16  0.33956661D-03
  0.18350672D-14 -0.83022860D-03 -0.83397054D-03  0.16641991D-02 -0.91592094D-18
 -0.20735768D-04 -0.34254309D-15  0.48460356D-01  0.90213451D-01  0.14840028D+00
  0.19927667D+00  0.18762650D+00  0.15418518D-01  0.78745389D-01  0.20924124D+00
 -0.28207181D-03 -0.11216348D-02 -0.10495738D-02 -0.81293546D-03  0.20792244D-15
  0.19456418D-15  0.15069748D-15  0.24682740D+00  0.23096963D+00  0.17889491D+00
 -0.11005562D+00 -0.28146148D-03 -0.14630311D-15  0.72111473D-01 -0.37625347D-01
 -0.41431243D-03 -0.68124046D-16  0.49113358D-02  0.16824504D-01 -0.62884184D-04
 -0.39755373D-17  0.19876983D-02  0.13129150D-01  0.13125737D-01 -0.26254887D-01
  0.48551070D-16  0.33956661D-03  0.19148271D-14  0.83022860D-03  0.83397054D-03
 -0.16641991D-02  0.95014822D-18 -0.20735768D-04 -0.40169398D-15 -0.34732833D-01
 -0.62653076D-01 -0.92367149D-01 -0.53994726D-01 -0.51932656D-02  0.64353124D-03
 -0.57560672D-04  0.85682665D-15 -0.27037245D-01 -0.34779955D-03 -0.27727999D-15
 -0.46711519D-02  0.34732833D-01  0.62653076D-01  0.92367149D-01  0.53994726D-01
  0.51932656D-02 -0.64353124D-03  0.57560672D-04 -0.74030290D-15 -0.27037245D-01
  0.34779955D-03  0.17618038D-15 -0.46711519D-02
MO    5     MO 0.0        OCC NO =    2.0000000  ORB. ENERGY =   -0.506773
 -0.10803798D-02 -0.20112273D-02 -0.33084500D-02 -0.44426931D-02 -0.41829630D-02
 -0.34374192D-03 -0.15312054D-02 -0.40686995D-02  0.54848911D-05  0.12076525D-02
  0.11300652D-02  0.87527918D-03 -0.32931071D-15 -0.30815369D-15 -0.23867694D-15
  0.49549786D+00  0.46366391D+00  0.35912562D+00 -0.63882325D-02  0.30122533D-03
 -0.24254052D-15  0.14199574D+00  0.19242145D-01  0.88191644D-04 -0.32580156D-16
  0.13922447D-01 -0.51772229D-03  0.22149173D-04 -0.33110678D-17  0.28583158D-03
  0.46800589D-02  0.46827920D-02 -0.93628509D-02 -0.38596937D-15 -0.23573654D-04
 -0.22497277D-15 -0.40150299D-02 -0.40174261D-02  0.80324560D-02  0.24179937D-16
  0.18182105D-03  0.22290755D-15 -0.10803798D-02 -0.20112273D-02 -0.33084500D-02
 -0.44426931D-02 -0.41829630D-02 -0.34374192D-03 -0.15312054D-02 -0.40686995D-02
  0.54848911D-05  0.12076525D-02  0.11300652D-02  0.87527918D-03 -0.19476771D-15
 -0.18225459D-15 -0.14116323D-15 -0.49549786D+00 -0.46366391D+00 -0.35912562D+00
 -0.63882325D-02  0.30122533D-03 -0.23231599D-15 -0.14199574D+00  0.19242145D-01
  0.88191644D-04 -0.64510950D-17 -0.13922447D-01 -0.51772229D-03  0.22149173D-04
 -0.46342061D-17 -0.28583158D-03  0.46800589D-02  0.46827920D-02 -0.93628509D-02
  0.32677948D-15  0.23573654D-04  0.78636318D-17 -0.40150299D-02 -0.40174261D-02
  0.80324560D-02 -0.24953408D-16 -0.18182105D-03  0.11513269D-15  0.35529718D-01
  0.64090543D-01  0.94486353D-01  0.44961222D-01  0.53754853D-02  0.50633364D-03
 -0.10355904D-03  0.12150836D-15  0.30128584D-01  0.48478534D-03  0.46202948D-16
 -0.19044249D-02  0.35529718D-01  0.64090543D-01  0.94486353D-01  0.44961222D-01
  0.53754853D-02  0.50633364D-03 -0.10355904D-03  0.19286533D-15 -0.30128584D-01
  0.48478534D-03 -0.16046963D-15  0.19044249D-02
MO    6     MO 0.0        OCC NO =    2.0000000  ORB. ENERGY =   -0.301945
  0.59814905D-03  0.11135100D-02  0.18317135D-02  0.24596837D-02  0.23158850D-02
  0.19031168D-03  0.10046994D-02  0.26696743D-02 -0.35989075D-05  0.49849221D+00
  0.46646588D+00  0.36129586D+00  0.57107427D-11  0.53438481D-11  0.41390169D-11
 -0.26153310D-03 -0.24473055D-03 -0.18955327D-03 -0.20111007D-02  0.16389424D+00
  0.18775223D-11  0.22927565D-03 -0.57104466D-04  0.27087169D-01  0.31025011D-12
  0.53871648D-04  0.32156944D-03  0.75334647D-03  0.85621186D-14 -0.13004103D-03
  0.22719991D-03  0.47339226D-03 -0.70059217D-03 -0.26806170D-14 -0.59239446D-01
 -0.67852033D-12  0.31353391D-03 -0.35872902D-03  0.45195108D-04  0.76880368D-14
 -0.67413896D-02 -0.77017259D-13  0.59814905D-03  0.11135100D-02  0.18317135D-02
  0.24596837D-02  0.23158850D-02  0.19031168D-03  0.10046994D-02  0.26696743D-02
 -0.35989075D-05  0.49849221D+00  0.46646588D+00  0.36129586D+00  0.57102340D-11
  0.53433722D-11  0.41386483D-11  0.26153310D-03  0.24473055D-03  0.18955327D-03
 -0.20111007D-02  0.16389424D+00  0.18776252D-11 -0.22927565D-03 -0.57104467D-04
  0.27087169D-01  0.31052494D-12 -0.53871648D-04  0.32156943D-03  0.75334647D-03
  0.85255906D-14  0.13004103D-03  0.22719991D-03  0.47339226D-03 -0.70059217D-03
 -0.27820501D-14  0.59239446D-01  0.67858869D-12  0.31353391D-03 -0.35872902D-03
  0.45195108D-04  0.77030047D-14  0.67413896D-02  0.77446464D-13 -0.32706405D-03
 -0.58997688D-03 -0.86978143D-03 -0.12057029D-02 -0.35191931D-03  0.15152438D-03
  0.12647438D-01  0.14500947D-12 -0.29054515D-03  0.98814916D-02  0.11339371D-12
 -0.27315435D-03 -0.32706405D-03 -0.58997688D-03 -0.86978143D-03 -0.12057029D-02
 -0.35191931D-03  0.15152438D-03  0.12647438D-01  0.14472707D-12  0.29054515D-03
  0.98814916D-02  0.11324002D-12  0.27315435D-03
MO    7     MO 0.0        OCC NO =    2.0000000  ORB. ENERGY =   -0.301926
 -0.68785909D-14 -0.12805135D-13 -0.21064327D-13 -0.28285856D-13 -0.26632200D-13
 -0.21885452D-14 -0.11593617D-13 -0.30806410D-13  0.41529193D-16 -0.57090593D-11
 -0.53422729D-11 -0.41377968D-11  0.49861029D+00  0.46657638D+00  0.36138144D+00
  0.42605192D-14  0.39867963D-14  0.30879278D-14  0.22425859D-13 -0.18770543D-11
  0.16392642D+00 -0.57024840D-14  0.32937219D-13 -0.31025610D-12  0.27101560D-01
 -0.19967328D-13  0.11111917D-12 -0.86147320D-14  0.74587506D-03 -0.13965638D-13
 -0.23878726D-14 -0.51762120D-14  0.75640847D-14 -0.24591343D-03  0.67880761D-12
 -0.59258527D-01 -0.45027598D-14  0.31704503D-14  0.13323095D-14  0.67221920D-03
  0.77193320D-13 -0.67417371D-02 -0.68792798D-14 -0.12806418D-13 -0.21066437D-13
 -0.28288689D-13 -0.26634867D-13 -0.21887644D-14 -0.11515529D-13 -0.30598916D-13
  0.41249476D-16 -0.57091049D-11 -0.53423156D-11 -0.41378299D-11  0.49861029D+00
  0.46657638D+00  0.36138144D+00 -0.20754224D-14 -0.19420840D-14 -0.15042191D-14
  0.23060153D-13 -0.18770732D-11  0.16392642D+00 -0.27898326D-14 -0.28824908D-13
 -0.31019447D-12  0.27101560D-01 -0.19676023D-13 -0.11698601D-12 -0.86369627D-14
  0.74587506D-03 -0.17464155D-13 -0.27459418D-14 -0.55528478D-14  0.82987897D-14
 -0.24591343D-03 -0.67881860D-12  0.59258527D-01 -0.31839662D-14  0.44499435D-14
 -0.12659773D-14  0.67221920D-03 -0.77094101D-13  0.67417371D-02  0.40305183D-14
  0.72704800D-14  0.10718604D-13  0.82937539D-14 -0.11030418D-13 -0.13374837D-13
 -0.14480281D-12  0.12645616D-01  0.42873636D-14 -0.11321303D-12  0.98895095D-02
 -0.36104229D-15  0.34169864D-14  0.61637559D-14  0.90870009D-14  0.16667251D-13
  0.16848624D-13  0.90228403D-14 -0.14477038D-12  0.12645616D-01 -0.25366014D-14
 -0.11319222D-12  0.98895095D-02 -0.45337478D-14
END DATA
 THE  HF ENERGY =    -77.359524763553 THE VIRIAL(-V/T)=   2.00453753
