 acetylene B3LYP/6-311++G(2d,2p)                         
GAUSSIAN              7 MOL ORBITALS    108 PRIMITIVES        4 NUCLEI
  C    1    (CENTRE  1)   0.00000000  0.00000000  1.13026788  CHARGE =  6.0
  C    2    (CENTRE  2)   0.00000000  0.00000000 -1.13026788  CHARGE =  6.0
  H    3    (CENTRE  3)   0.00000000  0.00000000 -3.13613091  CHARGE =  1.0
  H    4    (CENTRE  4)   0.00000000  0.00000000  3.13613091  CHARGE =  1.0
CENTRE ASSIGNMENTS    1  1  1  1  1  1  1  1  1  1  1  1  1  1  1  1  1  1  1  1
CENTRE ASSIGNMENTS    1  1  1  1  1  1  1  1  1  1  1  1  1  1  1  1  1  1  1  1
CENTRE ASSIGNMENTS    1  1  2  2  2  2  2  2  2  2  2  2  2  2  2  2  2  2  2  2
CENTRE ASSIGNMENTS    2  2  2  2  2  2  2  2  2  2  2  2  2  2  2  2  2  2  2  2
CENTRE ASSIGNMENTS    2  2  2  2  3  3  3  3  3  3  3  3  3  3  3  3  4  4  4  4
CENTRE ASSIGNMENTS    4  4  4  4  4  4  4  4
TYPE ASSIGNMENTS      1  1  1  1  1  1  1  1  1  2  2  2  3  3  3  4  4  4  1  2
TYPE ASSIGNMENTS      3  4  1  2  3  4  1  2  3  4  5  6  7  8  9 10  5  6  7  8
TYPE ASSIGNMENTS      9 10  1  1  1  1  1  1  1  1  1  2  2  2  3  3  3  4  4  4
TYPE ASSIGNMENTS      1  2  3  4  1  2  3  4  1  2  3  4  5  6  7  8  9 10  5  6
TYPE ASSIGNMENTS      7  8  9 10  1  1  1  1  1  1  2  3  4  2  3  4  1  1  1  1
TYPE ASSIGNMENTS      1  1  2  3  4  2  3  4
EXPONENTS  0.4563240D+04 0.6820240D+03 0.1549730D+03 0.4445530D+02 0.1302900D+02
EXPONENTS  0.1827730D+01 0.2096420D+02 0.4803310D+01 0.1459330D+01 0.2096420D+02
EXPONENTS  0.4803310D+01 0.1459330D+01 0.2096420D+02 0.4803310D+01 0.1459330D+01
EXPONENTS  0.2096420D+02 0.4803310D+01 0.1459330D+01 0.4834560D+00 0.4834560D+00
EXPONENTS  0.4834560D+00 0.4834560D+00 0.1455850D+00 0.1455850D+00 0.1455850D+00
EXPONENTS  0.1455850D+00 0.4380000D-01 0.4380000D-01 0.4380000D-01 0.4380000D-01
EXPONENTS  0.1252000D+01 0.1252000D+01 0.1252000D+01 0.1252000D+01 0.1252000D+01
EXPONENTS  0.1252000D+01 0.3130000D+00 0.3130000D+00 0.3130000D+00 0.3130000D+00
EXPONENTS  0.3130000D+00 0.3130000D+00 0.4563240D+04 0.6820240D+03 0.1549730D+03
EXPONENTS  0.4445530D+02 0.1302900D+02 0.1827730D+01 0.2096420D+02 0.4803310D+01
EXPONENTS  0.1459330D+01 0.2096420D+02 0.4803310D+01 0.1459330D+01 0.2096420D+02
EXPONENTS  0.4803310D+01 0.1459330D+01 0.2096420D+02 0.4803310D+01 0.1459330D+01
EXPONENTS  0.4834560D+00 0.4834560D+00 0.4834560D+00 0.4834560D+00 0.1455850D+00
EXPONENTS  0.1455850D+00 0.1455850D+00 0.1455850D+00 0.4380000D-01 0.4380000D-01
EXPONENTS  0.4380000D-01 0.4380000D-01 0.1252000D+01 0.1252000D+01 0.1252000D+01
EXPONENTS  0.1252000D+01 0.1252000D+01 0.1252000D+01 0.3130000D+00 0.3130000D+00
EXPONENTS  0.3130000D+00 0.3130000D+00 0.3130000D+00 0.3130000D+00 0.3386500D+02
EXPONENTS  0.5094790D+01 0.1158790D+01 0.3258400D+00 0.1027410D+00 0.3600000D-01
EXPONENTS  0.1500000D+01 0.1500000D+01 0.1500000D+01 0.3750000D+00 0.3750000D+00
EXPONENTS  0.3750000D+00 0.3386500D+02 0.5094790D+01 0.1158790D+01 0.3258400D+00
EXPONENTS  0.1027410D+00 0.3600000D-01 0.1500000D+01 0.1500000D+01 0.1500000D+01
EXPONENTS  0.3750000D+00 0.3750000D+00 0.3750000D+00
MO    1     MO 0.0        OCC NO =    2.0000000  ORB. ENERGY =  -10.182117
  0.30951727D+00  0.57619514D+00  0.94783558D+00  0.12727841D+01  0.11983742D+01
  0.98478387D-01  0.26247340D+00  0.69744097D+00 -0.94019915D-03 -0.78806463D-15
 -0.73743433D-15 -0.57117139D-15 -0.45610358D-04 -0.42680058D-04 -0.33057354D-04
 -0.99709732D-03 -0.93303742D-03 -0.72267355D-03  0.42499270D-02  0.28511231D-15
  0.29402732D-05  0.29412210D-02  0.12403472D-02 -0.57452695D-17 -0.30042976D-06
  0.65476336D-03  0.46134244D-04  0.28637828D-17  0.74987575D-08  0.40039335D-05
 -0.89976488D-03 -0.89982766D-03  0.17995925D-02 -0.30979561D-15 -0.38013732D-15
 -0.44238127D-06 -0.52943252D-03 -0.52943647D-03  0.10588690D-02  0.45821927D-16
  0.34000891D-16  0.26435450D-06  0.30951727D+00  0.57619514D+00  0.94783558D+00
  0.12727841D+01  0.11983742D+01  0.98478387D-01  0.26247340D+00  0.69744097D+00
 -0.94019914D-03  0.14770795D-14  0.13821825D-14  0.10705537D-14 -0.45610358D-04
 -0.42680058D-04 -0.33057354D-04  0.99709732D-03  0.93303742D-03  0.72267355D-03
  0.42499270D-02 -0.47691277D-15  0.29402732D-05 -0.29412210D-02  0.12403472D-02
  0.78934376D-16 -0.30042976D-06 -0.65476337D-03  0.46134246D-04 -0.84343800D-17
  0.74987575D-08 -0.40039333D-05 -0.89976488D-03 -0.89982766D-03  0.17995925D-02
  0.26291932D-15 -0.63977799D-15  0.44238127D-06 -0.52943252D-03 -0.52943647D-03
  0.10588690D-02 -0.10289796D-16 -0.38636980D-16 -0.26435450D-06  0.80450103D-04
  0.14512051D-03  0.21394588D-03 -0.39095644D-02 -0.36307609D-03 -0.15800895D-04
 -0.25735753D-15 -0.27198962D-06 -0.17488250D-02  0.88972852D-17 -0.24902969D-06
 -0.22082856D-02  0.80450103D-04  0.14512051D-03  0.21394588D-03 -0.39095644D-02
 -0.36307609D-03 -0.15800895D-04  0.13018533D-15 -0.27198962D-06  0.17488250D-02
 -0.10448554D-15 -0.24902969D-06  0.22082856D-02
MO    2     MO 0.0        OCC NO =    2.0000000  ORB. ENERGY =  -10.179558
  0.30984598D+00  0.57680705D+00  0.94884218D+00  0.12741358D+01  0.11996469D+01
  0.98582971D-01  0.26174959D+00  0.69551767D+00 -0.93760640D-03  0.50409517D-15
  0.47170887D-15  0.36535676D-15 -0.47733906D-04 -0.44667175D-04 -0.34596454D-04
  0.23373973D-02  0.21872280D-02  0.16940926D-02  0.86614707D-02 -0.13282920D-15
  0.49664524D-05 -0.49473265D-02  0.68933990D-02  0.23793886D-16 -0.38383370D-06
 -0.14914723D-02 -0.30014373D-02 -0.46029680D-18  0.68243460D-07  0.28424463D-03
 -0.23710453D-02 -0.23710720D-02  0.47421173D-02 -0.34643673D-15 -0.12224828D-15
  0.77659424D-06 -0.10930417D-02 -0.10930447D-02  0.21860863D-02  0.41824473D-16
 -0.87993627D-16 -0.19832064D-05 -0.30984598D+00 -0.57680705D+00 -0.94884218D+00
 -0.12741358D+01 -0.11996469D+01 -0.98582971D-01 -0.26174959D+00 -0.69551767D+00
  0.93760640D-03  0.39820816D-15  0.37262472D-15  0.28861225D-15  0.47733906D-04
  0.44667175D-04  0.34596454D-04  0.23373973D-02  0.21872280D-02  0.16940926D-02
 -0.86614707D-02 -0.16511166D-15 -0.49664524D-05 -0.49473265D-02 -0.68933990D-02
 -0.78410949D-17  0.38383370D-06 -0.14914723D-02  0.30014373D-02  0.26416180D-18
 -0.68243460D-07  0.28424463D-03  0.23710453D-02  0.23710720D-02 -0.47421173D-02
  0.78787756D-17  0.10661341D-16  0.77659424D-06  0.10930417D-02  0.10930447D-02
 -0.21860863D-02  0.23635792D-16  0.66730873D-16 -0.19832064D-05  0.16732821D-04
  0.30183621D-04  0.44498614D-04  0.34398526D-02 -0.10098809D-03 -0.84421787D-05
 -0.19678115D-15  0.72410948D-06  0.12734963D-02  0.12388984D-15 -0.88248794D-06
  0.14955131D-02 -0.16732821D-04 -0.30183621D-04 -0.44498614D-04 -0.34398526D-02
  0.10098809D-03  0.84421787D-05  0.17850695D-16 -0.72410948D-06  0.12734963D-02
  0.83829616D-16  0.88248794D-06  0.14955131D-02
MO    3     MO 0.0        OCC NO =    2.0000000  ORB. ENERGY =   -0.762083
 -0.74399680D-01 -0.13850191D+00 -0.22783434D+00 -0.30594328D+00 -0.28805713D+00
 -0.23671572D-01 -0.11832601D+00 -0.31441437D+00  0.42385253D-03  0.68044263D-15
  0.63672665D-15  0.49316940D-15 -0.14327234D-02 -0.13406761D-02 -0.10384054D-02
 -0.21149750D+00 -0.19790955D+00 -0.15328860D+00  0.16086701D+00 -0.10855320D-14
 -0.45099279D-03 -0.53232763D-01  0.25011165D-01 -0.50868506D-15 -0.20004307D-03
 -0.34444062D-02 -0.40919802D-03  0.29328481D-16 -0.56727208D-05 -0.74797301D-04
 -0.21415494D-01 -0.21418113D-01  0.42833608D-01  0.10230847D-15 -0.11151840D-14
  0.22139858D-03  0.55487285D-03  0.55744075D-03 -0.11123136D-02 -0.30944373D-16
  0.22280815D-14  0.34715037D-04 -0.74399680D-01 -0.13850191D+00 -0.22783434D+00
 -0.30594328D+00 -0.28805713D+00 -0.23671572D-01 -0.11832601D+00 -0.31441437D+00
  0.42385253D-03 -0.50882328D-15 -0.47613322D-15 -0.36878358D-15 -0.14327234D-02
 -0.13406761D-02 -0.10384054D-02  0.21149750D+00  0.19790955D+00  0.15328860D+00
  0.16086701D+00  0.11125549D-14 -0.45099279D-03  0.53232763D-01  0.25011165D-01
  0.54110276D-15 -0.20004307D-03  0.34444062D-02 -0.40919802D-03 -0.30860609D-16
 -0.56727208D-05  0.74797302D-04 -0.21415494D-01 -0.21418113D-01  0.42833608D-01
  0.26548042D-15 -0.10600063D-14 -0.22139858D-03  0.55487285D-03  0.55744075D-03
 -0.11123136D-02  0.10410559D-17  0.20128305D-14 -0.34715037D-04  0.11470208D-01
  0.20690618D-01  0.30503425D-01  0.21715880D-01  0.19171019D-02  0.27666552D-03
 -0.11732141D-15 -0.56936806D-04  0.66138010D-02  0.73956797D-15 -0.74703899D-04
  0.55875127D-02  0.11470208D-01  0.20690618D-01  0.30503425D-01  0.21715880D-01
  0.19171019D-02  0.27666552D-03  0.46735306D-16 -0.56936806D-04 -0.66138010D-02
 -0.10341773D-14 -0.74703899D-04 -0.55875127D-02
MO    4     MO 0.0        OCC NO =    2.0000000  ORB. ENERGY =   -0.575247
 -0.48460356D-01 -0.90213451D-01 -0.14840028D+00 -0.19927667D+00 -0.18762650D+00
 -0.15418518D-01 -0.78745389D-01 -0.20924124D+00  0.28207181D-03  0.64598272D-15
  0.60448067D-15  0.46819364D-15 -0.11216348D-02 -0.10495738D-02 -0.81293546D-03
  0.24682740D+00  0.23096963D+00  0.17889491D+00  0.11005562D+00 -0.15239325D-15
 -0.28146148D-03  0.72111473D-01  0.37625347D-01  0.28590990D-16 -0.41431243D-03
  0.49113358D-02 -0.16824504D-01  0.27491258D-16 -0.62884184D-04  0.19876983D-02
 -0.13125737D-01 -0.13129150D-01  0.26254887D-01 -0.37540411D-16 -0.77306304D-15
 -0.33956661D-03 -0.83397054D-03 -0.83022860D-03  0.16641991D-02 -0.61190223D-17
  0.96259173D-15  0.20735768D-04  0.48460356D-01  0.90213451D-01  0.14840028D+00
  0.19927667D+00  0.18762650D+00  0.15418518D-01  0.78745389D-01  0.20924124D+00
 -0.28207181D-03 -0.69293025D-16 -0.64841198D-16 -0.50222014D-16  0.11216348D-02
  0.10495738D-02  0.81293546D-03  0.24682740D+00  0.23096963D+00  0.17889491D+00
 -0.11005562D+00  0.56350887D-15  0.28146148D-03  0.72111473D-01 -0.37625347D-01
  0.79446350D-16  0.41431243D-03  0.49113358D-02  0.16824504D-01 -0.29313389D-16
  0.62884184D-04  0.19876983D-02  0.13125737D-01  0.13129150D-01 -0.26254887D-01
  0.24665665D-16 -0.67651938D-15 -0.33956661D-03  0.83397054D-03  0.83022860D-03
 -0.16641991D-02  0.40941277D-17  0.71200583D-15  0.20735768D-04 -0.34732833D-01
 -0.62653076D-01 -0.92367149D-01 -0.53994726D-01 -0.51932656D-02  0.64353123D-03
 -0.27629797D-15  0.57560672D-04 -0.27037245D-01  0.44841023D-15  0.34779955D-03
 -0.46711519D-02  0.34732833D-01  0.62653076D-01  0.92367149D-01  0.53994726D-01
  0.51932656D-02 -0.64353123D-03  0.48718589D-15 -0.57560672D-04 -0.27037245D-01
 -0.87497590D-15 -0.34779955D-03 -0.46711519D-02
MO    5     MO 0.0        OCC NO =    2.0000000  ORB. ENERGY =   -0.506734
 -0.10803798D-02 -0.20112273D-02 -0.33084500D-02 -0.44426931D-02 -0.41829630D-02
 -0.34374192D-03 -0.15312054D-02 -0.40686995D-02  0.54848911D-05  0.56825788D-15
  0.53174936D-15  0.41186044D-15 -0.12076525D-02 -0.11300652D-02 -0.87527918D-03
  0.49549786D+00  0.46366391D+00  0.35912562D+00 -0.63882325D-02  0.79267161D-15
 -0.30122533D-03  0.14199574D+00  0.19242145D-01  0.26678858D-15 -0.88191644D-04
  0.13922447D-01 -0.51772229D-03 -0.24718476D-16 -0.22149173D-04  0.28583158D-03
  0.46827920D-02  0.46800589D-02 -0.93628509D-02 -0.24960512D-15  0.21131316D-15
  0.23573654D-04 -0.40174261D-02 -0.40150299D-02  0.80324560D-02  0.61008906D-17
  0.12499060D-16 -0.18182105D-03 -0.10803798D-02 -0.20112273D-02 -0.33084500D-02
 -0.44426931D-02 -0.41829630D-02 -0.34374192D-03 -0.15312054D-02 -0.40686995D-02
  0.54848911D-05  0.21995883D-15  0.20582727D-15  0.15942117D-15 -0.12076525D-02
 -0.11300652D-02 -0.87527918D-03 -0.49549786D+00 -0.46366391D+00 -0.35912562D+00
 -0.63882325D-02  0.14760128D-15 -0.30122533D-03 -0.14199574D+00  0.19242145D-01
 -0.90458171D-16 -0.88191644D-04 -0.13922447D-01 -0.51772229D-03  0.21813101D-16
 -0.22149173D-04 -0.28583158D-03  0.46827920D-02  0.46800589D-02 -0.93628509D-02
 -0.15139541D-15  0.70901457D-15 -0.23573654D-04 -0.40174261D-02 -0.40150299D-02
  0.80324560D-02  0.47886593D-17 -0.48204426D-15  0.18182105D-03  0.35529718D-01
  0.64090543D-01  0.94486353D-01  0.44961222D-01  0.53754853D-02  0.50633364D-03
 -0.74303608D-16  0.10355904D-03  0.30128584D-01 -0.33759978D-15 -0.48478534D-03
 -0.19044249D-02  0.35529718D-01  0.64090543D-01  0.94486353D-01  0.44961222D-01
  0.53754853D-02  0.50633364D-03  0.49452879D-15  0.10355904D-03 -0.30128584D-01
 -0.45549260D-15 -0.48478534D-03  0.19044249D-02
MO    6     MO 0.0        OCC NO =    2.0000000  ORB. ENERGY =   -0.301899
 -0.59814905D-03 -0.11135100D-02 -0.18317135D-02 -0.24596837D-02 -0.23158850D-02
 -0.19031168D-03 -0.10046994D-02 -0.26696743D-02  0.35989075D-05  0.82269859D-11
  0.76984318D-11  0.59627330D-11  0.49849221D+00  0.46646588D+00  0.36129586D+00
  0.26153310D-03  0.24473055D-03  0.18955327D-03  0.20111007D-02  0.27046777D-11
  0.16389424D+00 -0.22927565D-03  0.57104466D-04  0.44724100D-12  0.27087169D-01
 -0.53871648D-04 -0.32156943D-03  0.12309071D-13  0.75334647D-03  0.13004103D-03
 -0.47339226D-03 -0.22719991D-03  0.70059217D-03  0.42594829D-14 -0.97756037D-12
 -0.59239446D-01  0.35872902D-03 -0.31353391D-03 -0.45195108D-04 -0.11207908D-13
 -0.11132620D-12 -0.67413896D-02 -0.59814905D-03 -0.11135100D-02 -0.18317135D-02
 -0.24596837D-02 -0.23158850D-02 -0.19031168D-03 -0.10046994D-02 -0.26696743D-02
  0.35989075D-05  0.82266104D-11  0.76980804D-11  0.59624609D-11  0.49849221D+00
  0.46646588D+00  0.36129586D+00 -0.26153310D-03 -0.24473055D-03 -0.18955327D-03
  0.20111007D-02  0.27046015D-11  0.16389424D+00  0.22927565D-03  0.57104466D-04
  0.44710408D-12  0.27087169D-01  0.53871648D-04 -0.32156943D-03  0.12308347D-13
  0.75334647D-03 -0.13004103D-03 -0.47339226D-03 -0.22719991D-03  0.70059217D-03
  0.40182997D-14  0.97790469D-12  0.59239446D-01  0.35872902D-03 -0.31353391D-03
 -0.45195108D-04 -0.10955488D-13  0.11124046D-12  0.67413896D-02  0.32706405D-03
  0.58997688D-03  0.86978143D-03  0.12057029D-02  0.35191931D-03 -0.15152438D-03
  0.20869783D-12  0.12647438D-01  0.29054515D-03  0.16332145D-12  0.98814916D-02
  0.27315435D-03  0.32706405D-03  0.58997688D-03  0.86978143D-03  0.12057029D-02
  0.35191931D-03 -0.15152438D-03  0.20863396D-12  0.12647438D-01 -0.29054515D-03
  0.16316369D-12  0.98814916D-02 -0.27315435D-03
MO    7     MO 0.0        OCC NO =    2.0000000  ORB. ENERGY =   -0.301888
  0.98745018D-14  0.18382302D-13  0.30238713D-13  0.40605517D-13  0.38231625D-13
  0.31417471D-14  0.16462078D-13  0.43742825D-13 -0.58968383D-16  0.49861029D+00
  0.46657638D+00  0.36138144D+00 -0.82245975D-11 -0.76961968D-11 -0.59610019D-11
  0.20893132D-14  0.19550824D-14  0.15142869D-14 -0.29343111D-13  0.16392642D+00
 -0.27043179D-11 -0.27091945D-13  0.13623516D-12  0.27101560D-01 -0.44681668D-12
 -0.10107385D-12  0.55930066D-12  0.74587506D-03 -0.12472951D-13 -0.81439951D-13
  0.83269610D-14  0.40450404D-14 -0.12372001D-13  0.24591343D-03 -0.59258527D-01
  0.97756111D-12 -0.63243800D-14  0.48474411D-14  0.14769389D-14 -0.67221920D-03
 -0.67417371D-02  0.11122333D-12  0.99243012D-14  0.18475008D-13  0.30391214D-13
  0.40810300D-13  0.38424436D-13  0.31575917D-14  0.16938053D-13  0.45007578D-13
 -0.60673359D-16  0.49861029D+00  0.46657638D+00  0.36138144D+00 -0.82245408D-11
 -0.76961438D-11 -0.59609608D-11  0.82952158D-14  0.77622782D-14  0.60121845D-14
 -0.26452953D-13  0.16392642D+00 -0.27042616D-11 -0.15275660D-13 -0.16704547D-12
  0.27101560D-01 -0.44684103D-12 -0.93670541D-13 -0.55992511D-12  0.74587506D-03
 -0.12406310D-13 -0.72707358D-13  0.63409817D-14  0.22579511D-14 -0.85989328D-14
  0.24591343D-03  0.59258527D-01 -0.97755642D-12  0.13938082D-15  0.11091442D-13
 -0.11230822D-13 -0.67221920D-03  0.67417371D-02 -0.11123539D-12 -0.39965604D-14
 -0.72092248D-14 -0.10628298D-13 -0.25466362D-13 -0.65249291D-13 -0.48741030D-13
  0.12645616D-01 -0.20856800D-12 -0.64748764D-15  0.98895095D-02 -0.16300545D-12
 -0.75126659D-14 -0.71015111D-14 -0.12810113D-13 -0.18885483D-13  0.15986583D-13
  0.71521526D-13  0.60947012D-13  0.12645616D-01 -0.20861925D-12  0.92634963D-14
  0.98895095D-02 -0.16295665D-12 -0.16710276D-13
END DATA
 THE  HF ENERGY =    -77.359524763553 THE VIRIAL(-V/T)=   2.00453753
