 acetylene B3LYP/6-311++G(2d,2p)                         
GAUSSIAN              7 MOL ORBITALS    108 PRIMITIVES        4 NUCLEI
  C    1    (CENTRE  1)   0.00000000  0.00000000  1.13026788  CHARGE =  6.0
  C    2    (CENTRE  2)   0.00000000  0.00000000 -1.13026788  CHARGE =  6.0
  H    3    (CENTRE  3)   0.00000000  0.00000000 -3.13613091  CHARGE =  1.0
  H    4    (CENTRE  4)   0.00000000  0.00000000  3.13613091  CHARGE =  1.0
CENTRE ASSIGNMENTS    1  1  1  1  1  1  1  1  1  1  1  1  1  1  1  1  1  1  1  1
CENTRE ASSIGNMENTS    1  1  1  1  1  1  1  1  1  1  1  1  1  1  1  1  1  1  1  1
CENTRE ASSIGNMENTS    1  1  2  2  2  2  2  2  2  2  2  2  2  2  2  2  2  2  2  2
CENTRE ASSIGNMENTS    2  2  2  2  2  2  2  2  2  2  2  2  2  2  2  2  2  2  2  2
CENTRE ASSIGNMENTS    2  2  2  2  3  3  3  3  3  3  3  3  3  3  3  3  4  4  4  4
CENTRE ASSIGNMENTS    4  4  4  4  4  4  4  4
TYPE ASSIGNMENTS      1  1  1  1  1  1  1  1  1  2  2  2  3  3  3  4  4  4  1  2
TYPE ASSIGNMENTS      3  4  1  2  3  4  1  2  3  4  5  6  7  8  9 10  5  6  7  8
TYPE ASSIGNMENTS      9 10  1  1  1  1  1  1  1  1  1  2  2  2  3  3  3  4  4  4
TYPE ASSIGNMENTS      1  2  3  4  1  2  3  4  1  2  3  4  5  6  7  8  9 10  5  6
TYPE ASSIGNMENTS      7  8  9 10  1  1  1  1  1  1  2  3  4  2  3  4  1  1  1  1
TYPE ASSIGNMENTS      1  1  2  3  4  2  3  4
EXPONENTS  0.4563240D+04 0.6820240D+03 0.1549730D+03 0.4445530D+02 0.1302900D+02
EXPONENTS  0.1827730D+01 0.2096420D+02 0.4803310D+01 0.1459330D+01 0.2096420D+02
EXPONENTS  0.4803310D+01 0.1459330D+01 0.2096420D+02 0.4803310D+01 0.1459330D+01
EXPONENTS  0.2096420D+02 0.4803310D+01 0.1459330D+01 0.4834560D+00 0.4834560D+00
EXPONENTS  0.4834560D+00 0.4834560D+00 0.1455850D+00 0.1455850D+00 0.1455850D+00
EXPONENTS  0.1455850D+00 0.4380000D-01 0.4380000D-01 0.4380000D-01 0.4380000D-01
EXPONENTS  0.1252000D+01 0.1252000D+01 0.1252000D+01 0.1252000D+01 0.1252000D+01
EXPONENTS  0.1252000D+01 0.3130000D+00 0.3130000D+00 0.3130000D+00 0.3130000D+00
EXPONENTS  0.3130000D+00 0.3130000D+00 0.4563240D+04 0.6820240D+03 0.1549730D+03
EXPONENTS  0.4445530D+02 0.1302900D+02 0.1827730D+01 0.2096420D+02 0.4803310D+01
EXPONENTS  0.1459330D+01 0.2096420D+02 0.4803310D+01 0.1459330D+01 0.2096420D+02
EXPONENTS  0.4803310D+01 0.1459330D+01 0.2096420D+02 0.4803310D+01 0.1459330D+01
EXPONENTS  0.4834560D+00 0.4834560D+00 0.4834560D+00 0.4834560D+00 0.1455850D+00
EXPONENTS  0.1455850D+00 0.1455850D+00 0.1455850D+00 0.4380000D-01 0.4380000D-01
EXPONENTS  0.4380000D-01 0.4380000D-01 0.1252000D+01 0.1252000D+01 0.1252000D+01
EXPONENTS  0.1252000D+01 0.1252000D+01 0.1252000D+01 0.3130000D+00 0.3130000D+00
EXPONENTS  0.3130000D+00 0.3130000D+00 0.3130000D+00 0.3130000D+00 0.3386500D+02
EXPONENTS  0.5094790D+01 0.1158790D+01 0.3258400D+00 0.1027410D+00 0.3600000D-01
EXPONENTS  0.1500000D+01 0.1500000D+01 0.1500000D+01 0.3750000D+00 0.3750000D+00
EXPONENTS  0.3750000D+00 0.3386500D+02 0.5094790D+01 0.1158790D+01 0.3258400D+00
EXPONENTS  0.1027410D+00 0.3600000D-01 0.1500000D+01 0.1500000D+01 0.1500000D+01
EXPONENTS  0.3750000D+00 0.3750000D+00 0.3750000D+00
MO    1     MO 0.0        OCC NO =    2.0000000  ORB. ENERGY =  -10.182225
  0.30951727D+00  0.57619514D+00  0.94783558D+00  0.12727841D+01  0.11983742D+01
  0.98478387D-01  0.26247340D+00  0.69744097D+00 -0.94019915D-03 -0.47502325D-15
 -0.44450473D-15 -0.34428609D-15  0.45610358D-04  0.42680058D-04  0.33057354D-04
 -0.99709732D-03 -0.93303742D-03 -0.72267355D-03  0.42499270D-02  0.87227125D-16
 -0.29402732D-05  0.29412210D-02  0.12403472D-02 -0.13573955D-16  0.30042976D-06
  0.65476336D-03  0.46134244D-04  0.80456717D-17 -0.74987575D-08  0.40039335D-05
 -0.89976488D-03 -0.89982766D-03  0.17995925D-02 -0.32811755D-16 -0.36483420D-16
  0.44238127D-06 -0.52943252D-03 -0.52943647D-03  0.10588690D-02  0.15903362D-16
  0.16378188D-15 -0.26435450D-06  0.30951727D+00  0.57619514D+00  0.94783558D+00
  0.12727841D+01  0.11983742D+01  0.98478387D-01  0.26247340D+00  0.69744097D+00
 -0.94019914D-03  0.48619008D-15  0.45495412D-15  0.35237955D-15  0.45610358D-04
  0.42680058D-04  0.33057354D-04  0.99709732D-03  0.93303742D-03  0.72267355D-03
  0.42499270D-02 -0.90884777D-16 -0.29402732D-05 -0.29412210D-02  0.12403472D-02
  0.73519719D-17  0.30042976D-06 -0.65476337D-03  0.46134246D-04 -0.19294310D-17
 -0.74987575D-08 -0.40039333D-05 -0.89976488D-03 -0.89982766D-03  0.17995925D-02
  0.13420548D-15 -0.17696496D-15 -0.44238127D-06 -0.52943252D-03 -0.52943647D-03
  0.10588690D-02  0.41451940D-17  0.14192688D-15  0.26435450D-06  0.80450103D-04
  0.14512051D-03  0.21394588D-03 -0.39095644D-02 -0.36307609D-03 -0.15800895D-04
 -0.12113792D-15  0.27198962D-06 -0.17488250D-02  0.20191120D-15  0.24902969D-06
 -0.22082856D-02  0.80450103D-04  0.14512051D-03  0.21394588D-03 -0.39095644D-02
 -0.36307609D-03 -0.15800895D-04  0.67878833D-15  0.27198962D-06  0.17488250D-02
 -0.21120344D-15  0.24902969D-06  0.22082856D-02
MO    2     MO 0.0        OCC NO =    2.0000000  ORB. ENERGY =  -10.179665
  0.30984598D+00  0.57680705D+00  0.94884218D+00  0.12741358D+01  0.11996469D+01
  0.98582971D-01  0.26174959D+00  0.69551767D+00 -0.93760640D-03 -0.62530978D-15
 -0.58513589D-15 -0.45321036D-15  0.47733906D-04  0.44667175D-04  0.34596454D-04
  0.23373973D-02  0.21872280D-02  0.16940926D-02  0.86614707D-02  0.14275985D-15
 -0.49664524D-05 -0.49473265D-02  0.68933990D-02 -0.96509463D-17  0.38383370D-06
 -0.14914723D-02 -0.30014373D-02 -0.16157987D-17 -0.68243460D-07  0.28424463D-03
 -0.23710453D-02 -0.23710720D-02  0.47421173D-02 -0.15982786D-15 -0.13457531D-16
 -0.77659424D-06 -0.10930417D-02 -0.10930447D-02  0.21860863D-02  0.14068868D-17
 -0.84184527D-17  0.19832064D-05 -0.30984598D+00 -0.57680705D+00 -0.94884218D+00
 -0.12741358D+01 -0.11996469D+01 -0.98582971D-01 -0.26174959D+00 -0.69551767D+00
  0.93760640D-03 -0.59697326D-15 -0.55861989D-15 -0.43267269D-15 -0.47733906D-04
 -0.44667175D-04 -0.34596454D-04  0.23373973D-02  0.21872280D-02  0.16940926D-02
 -0.86614707D-02  0.11173194D-15  0.49664524D-05 -0.49473265D-02 -0.68933990D-02
 -0.28452325D-16 -0.38383370D-06 -0.14914723D-02  0.30014373D-02 -0.11788267D-17
  0.68243460D-07  0.28424463D-03  0.23710453D-02  0.23710720D-02 -0.47421173D-02
 -0.30130156D-15  0.11363974D-15 -0.77659424D-06  0.10930417D-02  0.10930447D-02
 -0.21860863D-02 -0.13223884D-16 -0.32651543D-16  0.19832064D-05  0.16732821D-04
  0.30183621D-04  0.44498614D-04  0.34398526D-02 -0.10098809D-03 -0.84421787D-05
 -0.18670860D-16 -0.72410948D-06  0.12734963D-02  0.49974583D-16  0.88248794D-06
  0.14955131D-02 -0.16732821D-04 -0.30183621D-04 -0.44498614D-04 -0.34398526D-02
  0.10098809D-03  0.84421787D-05  0.19592315D-16  0.72410948D-06  0.12734963D-02
  0.45197582D-16 -0.88248794D-06  0.14955131D-02
MO    3     MO 0.0        OCC NO =    2.0000000  ORB. ENERGY =   -0.762176
 -0.74399680D-01 -0.13850191D+00 -0.22783434D+00 -0.30594328D+00 -0.28805713D+00
 -0.23671572D-01 -0.11832601D+00 -0.31441437D+00  0.42385253D-03  0.43923014D-15
  0.41101119D-15  0.31834405D-15  0.14327234D-02  0.13406761D-02  0.10384054D-02
 -0.21149750D+00 -0.19790955D+00 -0.15328860D+00  0.16086701D+00 -0.74047445D-15
  0.45099279D-03 -0.53232763D-01  0.25011165D-01 -0.48065929D-15  0.20004307D-03
 -0.34444062D-02 -0.40919802D-03  0.26935384D-16  0.56727208D-05 -0.74797301D-04
 -0.21415494D-01 -0.21418113D-01  0.42833608D-01 -0.27749605D-15 -0.35676869D-15
 -0.22139858D-03  0.55487285D-03  0.55744075D-03 -0.11123136D-02 -0.33367463D-16
  0.18721040D-14 -0.34715037D-04 -0.74399680D-01 -0.13850191D+00 -0.22783434D+00
 -0.30594328D+00 -0.28805713D+00 -0.23671572D-01 -0.11832601D+00 -0.31441437D+00
  0.42385253D-03 -0.12214633D-15 -0.11429887D-15 -0.88528889D-16  0.14327234D-02
  0.13406761D-02  0.10384054D-02  0.21149750D+00  0.19790955D+00  0.15328860D+00
  0.16086701D+00  0.92580129D-15  0.45099279D-03  0.53232763D-01  0.25011165D-01
  0.51707481D-15  0.20004307D-03  0.34444062D-02 -0.40919801D-03 -0.28152276D-16
  0.56727208D-05  0.74797302D-04 -0.21415494D-01 -0.21418113D-01  0.42833608D-01
  0.26819754D-15 -0.86251641D-15  0.22139858D-03  0.55487285D-03  0.55744075D-03
 -0.11123136D-02  0.10705763D-16  0.17219002D-14  0.34715037D-04  0.11470208D-01
  0.20690618D-01  0.30503425D-01  0.21715880D-01  0.19171019D-02  0.27666552D-03
 -0.58879959D-16  0.56936806D-04  0.66138010D-02  0.58448856D-15  0.74703899D-04
  0.55875127D-02  0.11470208D-01  0.20690618D-01  0.30503425D-01  0.21715880D-01
  0.19171019D-02  0.27666552D-03 -0.19717257D-15  0.56936806D-04 -0.66138010D-02
 -0.81513304D-15  0.74703899D-04 -0.55875127D-02
MO    4     MO 0.0        OCC NO =    2.0000000  ORB. ENERGY =   -0.575320
 -0.48460356D-01 -0.90213451D-01 -0.14840028D+00 -0.19927667D+00 -0.18762650D+00
 -0.15418518D-01 -0.78745389D-01 -0.20924124D+00  0.28207181D-03  0.54241739D-15
  0.50756903D-15  0.39313183D-15  0.11216348D-02  0.10495738D-02  0.81293546D-03
  0.24682740D+00  0.23096963D+00  0.17889491D+00  0.11005562D+00  0.52741001D-16
  0.28146148D-03  0.72111473D-01  0.37625347D-01  0.74737580D-16  0.41431243D-03
  0.49113358D-02 -0.16824504D-01  0.20270459D-16  0.62884184D-04  0.19876983D-02
 -0.13125737D-01 -0.13129150D-01  0.26254887D-01 -0.11054375D-16  0.17741358D-14
  0.33956661D-03 -0.83397054D-03 -0.83022860D-03  0.16641991D-02 -0.12878009D-16
  0.67281735D-15 -0.20735768D-04  0.48460356D-01  0.90213451D-01  0.14840028D+00
  0.19927667D+00  0.18762650D+00  0.15418518D-01  0.78745389D-01  0.20924124D+00
 -0.28207181D-03  0.59194639D-16  0.55391598D-16  0.42902934D-16 -0.11216348D-02
 -0.10495738D-02 -0.81293546D-03  0.24682740D+00  0.23096963D+00  0.17889491D+00
 -0.11005562D+00  0.36847689D-15 -0.28146148D-03  0.72111473D-01 -0.37625347D-01
  0.37381718D-16 -0.41431243D-03  0.49113358D-02  0.16824504D-01 -0.22210510D-16
 -0.62884184D-04  0.19876983D-02  0.13125737D-01  0.13129150D-01 -0.26254887D-01
 -0.13049889D-17  0.20194484D-14  0.33956661D-03  0.83397054D-03  0.83022860D-03
 -0.16641991D-02  0.14666904D-16  0.40141544D-15 -0.20735768D-04 -0.34732833D-01
 -0.62653076D-01 -0.92367149D-01 -0.53994726D-01 -0.51932656D-02  0.64353123D-03
  0.88444482D-15 -0.57560672D-04 -0.27037245D-01  0.20398470D-15 -0.34779955D-03
 -0.46711519D-02  0.34732833D-01  0.62653076D-01  0.92367149D-01  0.53994726D-01
  0.51932656D-02 -0.64353123D-03 -0.36379533D-15  0.57560672D-04 -0.27037245D-01
 -0.68072138D-15  0.34779955D-03 -0.46711519D-02
MO    5     MO 0.0        OCC NO =    2.0000000  ORB. ENERGY =   -0.506811
 -0.10803798D-02 -0.20112273D-02 -0.33084500D-02 -0.44426931D-02 -0.41829630D-02
 -0.34374192D-03 -0.15312054D-02 -0.40686995D-02  0.54848911D-05 -0.30905608D-15
 -0.28920035D-15 -0.22399685D-15  0.12076525D-02  0.11300652D-02  0.87527918D-03
  0.49549786D+00  0.46366391D+00  0.35912562D+00 -0.63882325D-02  0.41663224D-15
  0.30122533D-03  0.14199574D+00  0.19242145D-01  0.22716828D-15  0.88191644D-04
  0.13922447D-01 -0.51772229D-03 -0.34908860D-16  0.22149173D-04  0.28583158D-03
  0.46827920D-02  0.46800589D-02 -0.93628509D-02  0.20656931D-15 -0.22769242D-15
 -0.23573654D-04 -0.40174261D-02 -0.40150299D-02  0.80324560D-02 -0.12152411D-16
  0.65518825D-16  0.18182105D-03 -0.10803798D-02 -0.20112273D-02 -0.33084500D-02
 -0.44426931D-02 -0.41829630D-02 -0.34374192D-03 -0.15312054D-02 -0.40686995D-02
  0.54848911D-05 -0.57893245D-15 -0.54173813D-15 -0.41959712D-15  0.12076525D-02
  0.11300652D-02  0.87527918D-03 -0.49549786D+00 -0.46366391D+00 -0.35912562D+00
 -0.63882325D-02 -0.26887119D-15  0.30122533D-03 -0.14199574D+00  0.19242145D-01
 -0.15993929D-15  0.88191644D-04 -0.13922447D-01 -0.51772229D-03  0.28959336D-16
  0.22149173D-04 -0.28583158D-03  0.46827920D-02  0.46800589D-02 -0.93628509D-02
 -0.23839278D-15  0.52535683D-15  0.23573654D-04 -0.40174261D-02 -0.40150299D-02
  0.80324560D-02  0.12794808D-16 -0.48694355D-15 -0.18182105D-03  0.35529718D-01
  0.64090543D-01  0.94486353D-01  0.44961222D-01  0.53754853D-02  0.50633364D-03
 -0.16518221D-16 -0.10355904D-03  0.30128584D-01 -0.32598560D-15  0.48478534D-03
 -0.19044249D-02  0.35529718D-01  0.64090543D-01  0.94486353D-01  0.44961222D-01
  0.53754853D-02  0.50633364D-03  0.29854145D-15 -0.10355904D-03 -0.30128584D-01
 -0.47521700D-15  0.48478534D-03  0.19044249D-02
MO    6     MO 0.0        OCC NO =    2.0000000  ORB. ENERGY =   -0.301991
  0.59814905D-03  0.11135100D-02  0.18317135D-02  0.24596837D-02  0.23158850D-02
  0.19031168D-03  0.10046994D-02  0.26696743D-02 -0.35989075D-05  0.12158572D-10
  0.11377428D-10  0.88122575D-11  0.49849221D+00  0.46646588D+00  0.36129586D+00
 -0.26153310D-03 -0.24473055D-03 -0.18955327D-03 -0.20111007D-02  0.39973720D-11
  0.16389424D+00  0.22927565D-03 -0.57104466D-04  0.66086281D-12  0.27087169D-01
  0.53871648D-04  0.32156943D-03  0.18173854D-13  0.75334647D-03 -0.13004103D-03
  0.47339226D-03  0.22719991D-03 -0.70059217D-03 -0.54054380D-14 -0.14445157D-11
 -0.59239446D-01 -0.35872902D-03  0.31353391D-03  0.45195108D-04  0.16300173D-13
 -0.16458580D-12 -0.67413896D-02  0.59814905D-03  0.11135100D-02  0.18317135D-02
  0.24596837D-02  0.23158850D-02  0.19031168D-03  0.10046994D-02  0.26696743D-02
 -0.35989075D-05  0.12158867D-10  0.11377704D-10  0.88124716D-11  0.49849221D+00
  0.46646588D+00  0.36129586D+00  0.26153310D-03  0.24473055D-03  0.18955327D-03
 -0.20111007D-02  0.39971275D-11  0.16389424D+00 -0.22927565D-03 -0.57104466D-04
  0.66083574D-12  0.27087169D-01 -0.53871648D-04  0.32156943D-03  0.18216037D-13
  0.75334647D-03  0.13004103D-03  0.47339226D-03  0.22719991D-03 -0.70059217D-03
 -0.57578774D-14  0.14451167D-11  0.59239446D-01 -0.35872902D-03  0.31353391D-03
  0.45195108D-04  0.16443461D-13  0.16422772D-12  0.67413896D-02 -0.32706405D-03
 -0.58997688D-03 -0.86978143D-03 -0.12057029D-02 -0.35191931D-03  0.15152438D-03
  0.30842016D-12  0.12647438D-01 -0.29054515D-03  0.24103279D-12  0.98814916D-02
 -0.27315435D-03 -0.32706405D-03 -0.58997688D-03 -0.86978143D-03 -0.12057029D-02
 -0.35191931D-03  0.15152438D-03  0.30845605D-12  0.12647438D-01  0.29054515D-03
  0.24132510D-12  0.98814916D-02  0.27315435D-03
MO    7     MO 0.0        OCC NO =    2.0000000  ORB. ENERGY =   -0.301964
 -0.14547403D-13 -0.27081342D-13 -0.44548552D-13 -0.59821229D-13 -0.56323942D-13
 -0.46285133D-14 -0.24553075D-13 -0.65242117D-13  0.87950931D-16  0.49861029D+00
  0.46657638D+00  0.36138144D+00 -0.12155248D-10 -0.11374317D-10 -0.88098483D-11
  0.13169360D-13  0.12323276D-13  0.95448537D-14  0.52575557D-13  0.16392642D+00
 -0.39964700D-11 -0.36173593D-13  0.13908309D-12  0.27101560D-01 -0.66040639D-12
 -0.10288295D-12  0.54644820D-12  0.74587506D-03 -0.18347579D-13 -0.76100578D-13
 -0.11114206D-13 -0.50772605D-14  0.16191466D-13 -0.24591343D-03 -0.59258527D-01
  0.14443693D-11  0.83057144D-14 -0.80451930D-14 -0.26052138D-15  0.67221920D-03
 -0.67417371D-02  0.16441967D-12 -0.14494383D-13 -0.26982639D-13 -0.44386187D-13
 -0.59603200D-13 -0.56118660D-13 -0.46116439D-14 -0.24072483D-13 -0.63965095D-13
  0.86229416D-16  0.49861029D+00  0.46657638D+00  0.36138144D+00 -0.12155355D-10
 -0.11374417D-10 -0.88099257D-11 -0.29281489D-14 -0.27400259D-14 -0.21222560D-14
  0.55450776D-13  0.16392642D+00 -0.39965540D-11 -0.62273560D-14 -0.16381483D-12
  0.27101560D-01 -0.66040901D-12 -0.91665799D-13 -0.57362266D-12  0.74587506D-03
 -0.18397826D-13 -0.78026747D-13 -0.13086988D-13 -0.68683963D-14  0.19955384D-13
 -0.24591343D-03  0.59258527D-01 -0.14443669D-11  0.14689351D-13 -0.17578833D-14
 -0.12931468D-13  0.67221920D-03  0.67417371D-02 -0.16441000D-12  0.94369422D-14
  0.17022897D-13  0.25096238D-13  0.23471861D-13 -0.51024659D-13 -0.54702846D-13
  0.12645616D-01 -0.30847686D-12  0.11278347D-13  0.98895095D-02 -0.24084299D-12
  0.33537527D-14  0.63070451D-14  0.11377010D-13  0.16772711D-13  0.64927993D-13
  0.85440380D-13  0.54734386D-13  0.12645616D-01 -0.30840983D-12 -0.26313397D-14
  0.98895095D-02 -0.24093746D-12 -0.27592917D-13
END DATA
 THE  HF ENERGY =    -77.359524763553 THE VIRIAL(-V/T)=   2.00453753
