 acetylene B3LYP/6-311++G(2d,2p)                         
GAUSSIAN              7 MOL ORBITALS    108 PRIMITIVES        4 NUCLEI
  C    1    (CENTRE  1)   0.00000000  0.00000000  1.13026788  CHARGE =  6.0
  C    2    (CENTRE  2)   0.00000000  0.00000000 -1.13026788  CHARGE =  6.0
  H    3    (CENTRE  3)   0.00000000  0.00000000 -3.13613091  CHARGE =  1.0
  H    4    (CENTRE  4)   0.00000000  0.00000000  3.13613091  CHARGE =  1.0
CENTRE ASSIGNMENTS    1  1  1  1  1  1  1  1  1  1  1  1  1  1  1  1  1  1  1  1
CENTRE ASSIGNMENTS    1  1  1  1  1  1  1  1  1  1  1  1  1  1  1  1  1  1  1  1
CENTRE ASSIGNMENTS    1  1  2  2  2  2  2  2  2  2  2  2  2  2  2  2  2  2  2  2
CENTRE ASSIGNMENTS    2  2  2  2  2  2  2  2  2  2  2  2  2  2  2  2  2  2  2  2
CENTRE ASSIGNMENTS    2  2  2  2  3  3  3  3  3  3  3  3  3  3  3  3  4  4  4  4
CENTRE ASSIGNMENTS    4  4  4  4  4  4  4  4
TYPE ASSIGNMENTS      1  1  1  1  1  1  1  1  1  2  2  2  3  3  3  4  4  4  1  2
TYPE ASSIGNMENTS      3  4  1  2  3  4  1  2  3  4  5  6  7  8  9 10  5  6  7  8
TYPE ASSIGNMENTS      9 10  1  1  1  1  1  1  1  1  1  2  2  2  3  3  3  4  4  4
TYPE ASSIGNMENTS      1  2  3  4  1  2  3  4  1  2  3  4  5  6  7  8  9 10  5  6
TYPE ASSIGNMENTS      7  8  9 10  1  1  1  1  1  1  2  3  4  2  3  4  1  1  1  1
TYPE ASSIGNMENTS      1  1  2  3  4  2  3  4
EXPONENTS  0.4563240D+04 0.6820240D+03 0.1549730D+03 0.4445530D+02 0.1302900D+02
EXPONENTS  0.1827730D+01 0.2096420D+02 0.4803310D+01 0.1459330D+01 0.2096420D+02
EXPONENTS  0.4803310D+01 0.1459330D+01 0.2096420D+02 0.4803310D+01 0.1459330D+01
EXPONENTS  0.2096420D+02 0.4803310D+01 0.1459330D+01 0.4834560D+00 0.4834560D+00
EXPONENTS  0.4834560D+00 0.4834560D+00 0.1455850D+00 0.1455850D+00 0.1455850D+00
EXPONENTS  0.1455850D+00 0.4380000D-01 0.4380000D-01 0.4380000D-01 0.4380000D-01
EXPONENTS  0.1252000D+01 0.1252000D+01 0.1252000D+01 0.1252000D+01 0.1252000D+01
EXPONENTS  0.1252000D+01 0.3130000D+00 0.3130000D+00 0.3130000D+00 0.3130000D+00
EXPONENTS  0.3130000D+00 0.3130000D+00 0.4563240D+04 0.6820240D+03 0.1549730D+03
EXPONENTS  0.4445530D+02 0.1302900D+02 0.1827730D+01 0.2096420D+02 0.4803310D+01
EXPONENTS  0.1459330D+01 0.2096420D+02 0.4803310D+01 0.1459330D+01 0.2096420D+02
EXPONENTS  0.4803310D+01 0.1459330D+01 0.2096420D+02 0.4803310D+01 0.1459330D+01
EXPONENTS  0.4834560D+00 0.4834560D+00 0.4834560D+00 0.4834560D+00 0.1455850D+00
EXPONENTS  0.1455850D+00 0.1455850D+00 0.1455850D+00 0.4380000D-01 0.4380000D-01
EXPONENTS  0.4380000D-01 0.4380000D-01 0.1252000D+01 0.1252000D+01 0.1252000D+01
EXPONENTS  0.1252000D+01 0.1252000D+01 0.1252000D+01 0.3130000D+00 0.3130000D+00
EXPONENTS  0.3130000D+00 0.3130000D+00 0.3130000D+00 0.3130000D+00 0.3386500D+02
EXPONENTS  0.5094790D+01 0.1158790D+01 0.3258400D+00 0.1027410D+00 0.3600000D-01
EXPONENTS  0.1500000D+01 0.1500000D+01 0.1500000D+01 0.3750000D+00 0.3750000D+00
EXPONENTS  0.3750000D+00 0.3386500D+02 0.5094790D+01 0.1158790D+01 0.3258400D+00
EXPONENTS  0.1027410D+00 0.3600000D-01 0.1500000D+01 0.1500000D+01 0.1500000D+01
EXPONENTS  0.3750000D+00 0.3750000D+00 0.3750000D+00
MO    1     MO 0.0        OCC NO =    2.0000000  ORB. ENERGY =  -10.182037
  0.30951725D+00  0.57619508D+00  0.94783549D+00  0.12727840D+01  0.11983741D+01
  0.98478378D-01  0.26247335D+00  0.69744085D+00 -0.94019898D-03 -0.48259733D-17
 -0.45159220D-17 -0.34977561D-17 -0.72963599D-16 -0.68275952D-16 -0.52882364D-16
 -0.99660622D-03 -0.93257788D-03 -0.72231761D-03  0.42500401D-02 -0.12009678D-15
 -0.14829112D-17  0.29412075D-02  0.12403497D-02 -0.23492262D-16  0.87664652D-17
  0.65477691D-03  0.46137114D-04  0.22900400D-17  0.93704473D-18  0.40039284D-05
 -0.89977333D-03 -0.89977333D-03  0.17995467D-02 -0.74387711D-15 -0.97011686D-15
 -0.32701937D-15 -0.52943563D-03 -0.52943563D-03  0.10588713D-02  0.39716440D-16
  0.41090822D-15  0.57418300D-16  0.30951725D+00  0.57619508D+00  0.94783549D+00
  0.12727840D+01  0.11983741D+01  0.98478378D-01  0.26247335D+00  0.69744085D+00
 -0.94019899D-03 -0.10365651D-14 -0.96996952D-15 -0.75127889D-15 -0.10539547D-15
 -0.98624195D-16 -0.76388251D-16  0.99660622D-03  0.93257787D-03  0.72231761D-03
  0.42500401D-02  0.45279320D-15  0.48179406D-16 -0.29412075D-02  0.12403497D-02
  0.47009809D-16 -0.21338371D-16 -0.65477691D-03  0.46137112D-04 -0.44764541D-19
 -0.92789086D-18 -0.40039285D-05 -0.89977333D-03 -0.89977333D-03  0.17995467D-02
 -0.27967223D-15 -0.98756209D-16 -0.10866403D-16 -0.52943563D-03 -0.52943563D-03
  0.10588713D-02 -0.21175729D-17  0.19751190D-15  0.90881244D-16  0.80453184D-04
  0.14512607D-03  0.21395407D-03 -0.39095947D-02 -0.36308185D-03 -0.15802497D-04
 -0.42299770D-16  0.38254778D-16 -0.17488462D-02 -0.44442504D-16  0.13937467D-15
 -0.22083044D-02  0.80453184D-04  0.14512607D-03  0.21395407D-03 -0.39095947D-02
 -0.36308185D-03 -0.15802497D-04 -0.13316693D-15 -0.14017718D-15  0.17488462D-02
 -0.30581575D-15 -0.67870476D-16  0.22083044D-02
MO    2     MO 0.0        OCC NO =    2.0000000  ORB. ENERGY =  -10.179478
  0.30984596D+00  0.57680701D+00  0.94884210D+00  0.12741357D+01  0.11996468D+01
  0.98582963D-01  0.26174953D+00  0.69551750D+00 -0.93760618D-03 -0.19762747D-15
 -0.18493062D-15 -0.14323591D-15 -0.22823277D-16 -0.21356964D-16 -0.16541794D-16
  0.23379219D-02  0.21877189D-02  0.16944729D-02  0.86616774D-02  0.34912382D-16
  0.96818571D-16 -0.49475295D-02  0.68935974D-02  0.11084073D-16  0.23168126D-16
 -0.14915326D-02 -0.30014720D-02  0.62257712D-17 -0.33958332D-18  0.28424624D-03
 -0.23710628D-02 -0.23710628D-02  0.47421256D-02  0.10563720D-16 -0.10247784D-15
  0.18782165D-15 -0.10930684D-02 -0.10930684D-02  0.21861369D-02  0.88918221D-17
 -0.36216855D-16 -0.74749354D-16 -0.30984596D+00 -0.57680701D+00 -0.94884210D+00
 -0.12741357D+01 -0.11996468D+01 -0.98582963D-01 -0.26174953D+00 -0.69551750D+00
  0.93760618D-03 -0.43005666D-16 -0.40242708D-16 -0.31169532D-16  0.18442221D-15
  0.17257375D-15  0.13366504D-15  0.23379219D-02  0.21877189D-02  0.16944729D-02
 -0.86616774D-02  0.75883594D-17 -0.53267707D-16 -0.49475295D-02 -0.68935974D-02
 -0.25733241D-16 -0.23095225D-16 -0.14915326D-02  0.30014720D-02  0.96159125D-17
  0.11164835D-17  0.28424624D-03  0.23710628D-02  0.23710628D-02 -0.47421256D-02
  0.61557309D-16  0.14011047D-15  0.19638156D-16  0.10930684D-02  0.10930684D-02
 -0.21861369D-02 -0.10841251D-16 -0.40452778D-16 -0.10809943D-15  0.16733250D-04
  0.30184396D-04  0.44499756D-04  0.34398962D-02 -0.10100067D-03 -0.84458429D-05
  0.34409492D-15 -0.70849016D-16  0.12735042D-02 -0.63122537D-16 -0.47991610D-16
  0.14955259D-02 -0.16733250D-04 -0.30184396D-04 -0.44499756D-04 -0.34398962D-02
  0.10100067D-03  0.84458428D-05  0.20234204D-15  0.42012338D-16  0.12735042D-02
 -0.62623579D-16 -0.15781303D-16  0.14955259D-02
MO    3     MO 0.0        OCC NO =    2.0000000  ORB. ENERGY =   -0.762014
 -0.74400253D-01 -0.13850298D+00 -0.22783609D+00 -0.30594564D+00 -0.28805935D+00
 -0.23671754D-01 -0.11832695D+00 -0.31441686D+00  0.42385590D-03 -0.18679514D-15
 -0.17479423D-15 -0.13538489D-15 -0.59394958D-16 -0.55579047D-16 -0.43048120D-16
 -0.21147318D+00 -0.19788679D+00 -0.15327097D+00  0.16086630D+00 -0.11231011D-14
  0.95243267D-16 -0.53228214D-01  0.25013059D-01 -0.46318376D-15 -0.14280418D-15
 -0.34448854D-02 -0.41030161D-03  0.16044820D-16  0.15651351D-16 -0.74519691D-04
 -0.21415767D-01 -0.21415767D-01  0.42831533D-01  0.78991649D-16 -0.45585319D-15
  0.38528561D-15  0.55682514D-03  0.55682514D-03 -0.11136503D-02  0.31403678D-16
  0.21589669D-14  0.46795785D-15 -0.74400253D-01 -0.13850298D+00 -0.22783609D+00
 -0.30594564D+00 -0.28805935D+00 -0.23671754D-01 -0.11832695D+00 -0.31441686D+00
  0.42385590D-03 -0.88139268D-15 -0.82476639D-15 -0.63881345D-15  0.16189414D-15
  0.15149303D-15  0.11733720D-15  0.21147318D+00  0.19788679D+00  0.15327097D+00
  0.16086630D+00  0.93104468D-15  0.46466290D-15  0.53228214D-01  0.25013059D-01
  0.43341160D-15  0.13792957D-15  0.34448854D-02 -0.41030159D-03 -0.15616483D-16
 -0.74879630D-17  0.74519694D-04 -0.21415767D-01 -0.21415767D-01  0.42831533D-01
 -0.85336326D-17 -0.11265694D-14 -0.45583129D-15  0.55682514D-03  0.55682514D-03
 -0.11136503D-02 -0.35780789D-17  0.18562069D-14  0.47729383D-15  0.11472103D-01
  0.20694037D-01  0.30508465D-01  0.21722899D-01  0.19186907D-02  0.27649980D-03
 -0.10795229D-14 -0.18364270D-15  0.66156419D-02  0.76900484D-15  0.19363857D-15
  0.55890614D-02  0.11472103D-01  0.20694037D-01  0.30508465D-01  0.21722899D-01
  0.19186907D-02  0.27649980D-03  0.10955005D-14 -0.16659837D-15 -0.66156419D-02
 -0.11631672D-14 -0.17496255D-15 -0.55890614D-02
MO    4     MO 0.0        OCC NO =    2.0000000  ORB. ENERGY =   -0.575193
 -0.48459542D-01 -0.90211936D-01 -0.14839779D+00 -0.19927332D+00 -0.18762334D+00
 -0.15418259D-01 -0.78743816D-01 -0.20923706D+00  0.28206618D-03  0.69795076D-15
  0.65310994D-15  0.50585890D-15  0.18476209D-15  0.17289179D-15  0.13391138D-15
  0.24682255D+00  0.23096509D+00  0.17889139D+00  0.11004963D+00 -0.38326929D-15
  0.11797718D-15  0.72112013D-01  0.37616328D-01 -0.40124227D-16  0.67270936D-16
  0.49142359D-02 -0.16928242D-01  0.29766941D-16  0.76433186D-17  0.19992433D-02
 -0.13127740D-01 -0.13127740D-01  0.26255479D-01  0.67393245D-16 -0.26517251D-14
 -0.52901761D-15 -0.83144866D-03 -0.83144866D-03  0.16628973D-02  0.80012606D-17
  0.11629243D-14 -0.10687994D-15  0.48459542D-01  0.90211936D-01  0.14839779D+00
  0.19927332D+00  0.18762334D+00  0.15418259D-01  0.78743816D-01  0.20923706D+00
 -0.28206618D-03 -0.15648325D-15 -0.14642976D-15 -0.11341551D-15  0.88816229D-16
  0.83110108D-16  0.64371991D-16  0.24682255D+00  0.23096509D+00  0.17889139D+00
 -0.11004963D+00  0.79297318D-15 -0.89244401D-17  0.72112013D-01 -0.37616328D-01
  0.14577421D-15 -0.47814682D-16  0.49142359D-02  0.16928242D-01 -0.31470585D-16
 -0.37589434D-17  0.19992433D-02  0.13127740D-01  0.13127740D-01 -0.26255479D-01
 -0.33895244D-16 -0.26522211D-14 -0.33927403D-15  0.83144866D-03  0.83144866D-03
 -0.16628973D-02 -0.12569101D-16  0.91971956D-15 -0.14752520D-15 -0.34734048D-01
 -0.62655268D-01 -0.92370380D-01 -0.54001976D-01 -0.51967219D-02  0.64963825D-03
 -0.11638709D-14 -0.31863875D-15 -0.27036143D-01  0.66611873D-15 -0.62780662D-16
 -0.46720348D-02  0.34734048D-01  0.62655268D-01  0.92370380D-01  0.54001976D-01
  0.51967219D-02 -0.64963825D-03  0.12397938D-14  0.46717133D-15 -0.27036143D-01
 -0.10709930D-14 -0.43762413D-16 -0.46720348D-02
MO    5     MO 0.0        OCC NO =    2.0000000  ORB. ENERGY =   -0.506677
 -0.10779781D-02 -0.20067563D-02 -0.33010952D-02 -0.44328169D-02 -0.41736642D-02
 -0.34297777D-03 -0.15272522D-02 -0.40581950D-02  0.54707304D-05  0.44184874D-15
  0.41346156D-15  0.32024196D-15  0.33084144D-15  0.30958607D-15  0.23978638D-15
  0.49548596D+00  0.46365278D+00  0.35911700D+00 -0.63964101D-02  0.76961518D-15
 -0.13649493D-16  0.14199648D+00  0.19243957D-01  0.15718669D-15  0.69198892D-16
  0.13922472D-01 -0.51439195D-03 -0.46500203D-17 -0.69886175D-17  0.28815093D-03
  0.46799330D-02  0.46799330D-02 -0.93598661D-02 -0.17927052D-15 -0.91390340D-15
  0.34929948D-15 -0.40173350D-02 -0.40173350D-02  0.80346700D-02  0.64237479D-18
 -0.12347318D-15 -0.17136132D-15 -0.10779781D-02 -0.20067563D-02 -0.33010952D-02
 -0.44328169D-02 -0.41736642D-02 -0.34297777D-03 -0.15272522D-02 -0.40581950D-02
  0.54707304D-05 -0.31771115D-15 -0.29729936D-15 -0.23026985D-15  0.40919474D-15
  0.38290545D-15  0.29657507D-15 -0.49548596D+00 -0.46365278D+00 -0.35911700D+00
 -0.63964101D-02 -0.33298638D-15 -0.17868518D-15 -0.14199648D+00  0.19243957D-01
 -0.55378497D-16 -0.10029559D-15 -0.13922472D-01 -0.51439195D-03 -0.73061625D-18
  0.18018264D-16 -0.28815093D-03  0.46799330D-02  0.46799330D-02 -0.93598661D-02
 -0.76554624D-16 -0.21764912D-15  0.19183992D-15 -0.40173350D-02 -0.40173350D-02
  0.80346700D-02  0.70743192D-17 -0.44668842D-15 -0.14567960D-15  0.35530845D-01
  0.64092575D-01  0.94489349D-01  0.44962017D-01  0.53784384D-02  0.50112104D-03
  0.24683627D-15 -0.26691669D-15  0.30126182D-01 -0.34942341D-15  0.14246834D-16
 -0.19069683D-02  0.35530845D-01  0.64092575D-01  0.94489349D-01  0.44962017D-01
  0.53784384D-02  0.50112104D-03  0.18876859D-15 -0.14967720D-15 -0.30126182D-01
 -0.42079102D-15  0.57262696D-16  0.19069683D-02
MO    6     MO 0.0        OCC NO =    2.0000000  ORB. ENERGY =   -0.301831
  0.74424971D-16  0.13854899D-15  0.22791179D-15  0.30604728D-15  0.28815505D-15
  0.23679619D-16  0.18064244D-15  0.48000079D-15 -0.64707459D-18 -0.30347274D+00
 -0.28397571D+00 -0.21995016D+00  0.39559263D+00  0.37017723D+00  0.28671658D+00
 -0.32422180D-14 -0.30339172D-14 -0.23498862D-14 -0.36691559D-14 -0.99771807D-01
  0.13005778D+00  0.16716728D-13 -0.57485446D-13 -0.16496761D-01  0.21504393D-01
  0.46846004D-13 -0.24757309D-12 -0.45427550D-03  0.59217194D-03  0.36253890D-13
 -0.10050858D-16  0.45334846D-16 -0.35283988D-16  0.71091531D-16  0.36064117D-01
 -0.47011468D-01 -0.59615050D-15 -0.72790280D-15  0.13240533D-14 -0.15196056D-15
  0.41025943D-02 -0.53479469D-02  0.63449123D-16  0.11811643D-15  0.19430042D-15
  0.26091285D-15  0.24565929D-15  0.20187459D-16 -0.15459125D-16 -0.41077790D-16
  0.55375730D-19 -0.30347274D+00 -0.28397571D+00 -0.21995016D+00  0.39559263D+00
  0.37017723D+00  0.28671658D+00 -0.14011826D-14 -0.13111617D-14 -0.10155454D-14
 -0.50085306D-14 -0.99771807D-01  0.13005778D+00  0.23651691D-14  0.78337445D-13
 -0.16496761D-01  0.21504393D-01  0.40464360D-13  0.25572095D-12 -0.45427550D-03
  0.59217194D-03  0.33036959D-13  0.82252137D-15  0.89695035D-15 -0.17194717D-14
 -0.27007817D-15 -0.36064117D-01  0.47011468D-01 -0.35100722D-14 -0.35097209D-14
  0.70197931D-14  0.79816244D-16 -0.41025943D-02  0.53479469D-02 -0.64715279D-15
 -0.11673713D-14 -0.17210130D-14 -0.18319559D-14  0.24291484D-13  0.22045780D-13
 -0.76968438D-02  0.10033240D-01 -0.19494502D-14 -0.60199519D-02  0.78473231D-02
 -0.10686632D-14  0.75023436D-15  0.13533158D-14  0.19951441D-14 -0.20453763D-13
 -0.37132109D-13 -0.27210817D-13 -0.76968438D-02  0.10033240D-01 -0.19303626D-14
 -0.60199519D-02  0.78473231D-02  0.12001010D-13
MO    7     MO 0.0        OCC NO =    2.0000000  ORB. ENERGY =   -0.301830
 -0.79597280D-16 -0.14817772D-15 -0.24375096D-15 -0.32731664D-15 -0.30818095D-15
 -0.25325280D-16 -0.23241229D-15 -0.61756298D-15  0.83251804D-18  0.39559263D+00
  0.37017723D+00  0.28671658D+00  0.30347274D+00  0.28397571D+00  0.21995016D+00
  0.51324193D-14  0.48026800D-14  0.37198613D-14  0.27946964D-14  0.13005778D+00
  0.99771807D-01 -0.26895038D-13  0.12745042D-12  0.21504393D-01  0.16496761D-01
 -0.92661736D-13  0.50680425D-12  0.59217194D-03  0.45427550D-03 -0.72305606D-13
  0.45392546D-15  0.39801793D-15 -0.85194339D-15 -0.20078319D-15 -0.47011468D-01
 -0.36064117D-01 -0.87489831D-15 -0.73922017D-15  0.16141185D-14 -0.13941364D-15
 -0.53479469D-02 -0.41025943D-02 -0.18666608D-16 -0.34749624D-16 -0.57162805D-16
 -0.76760053D-16 -0.72272483D-16 -0.59391111D-17  0.23552752D-15  0.62584073D-15
 -0.84367703D-18  0.39559263D+00  0.37017723D+00  0.28671658D+00  0.30347274D+00
  0.28397571D+00  0.21995016D+00  0.40619572D-14  0.38009911D-14  0.29440145D-14
  0.53948990D-14  0.13005778D+00  0.99771807D-01 -0.12109297D-13 -0.14988414D-12
  0.21504393D-01  0.16496761D-01 -0.85535109D-13 -0.51631758D-12  0.59217194D-03
  0.45427550D-03 -0.68591023D-13 -0.16181847D-14 -0.10255272D-14  0.26437119D-14
 -0.16038589D-15  0.47011468D-01  0.36064117D-01  0.49871221D-14  0.49826933D-14
 -0.99698154D-14 -0.60479588D-16  0.53479469D-02  0.41025943D-02  0.13364315D-14
  0.24107318D-14  0.35540541D-14 -0.74758972D-14 -0.55369644D-13 -0.47023403D-13
  0.10033240D-01  0.76968438D-02  0.37844124D-14  0.78473231D-02  0.60199519D-02
 -0.41824680D-14 -0.15195108D-14 -0.27409808D-14 -0.40409281D-14  0.30715977D-13
  0.69738437D-13  0.53159881D-13  0.10033240D-01  0.76968438D-02  0.41603029D-14
  0.78473231D-02  0.60199519D-02 -0.18124038D-13
END DATA
 THE  HF ENERGY =    -77.359327755819 THE VIRIAL(-V/T)=   2.00453176
