 acetylene B3LYP/6-311++G(2d,2p)                         
GAUSSIAN              7 MOL ORBITALS    108 PRIMITIVES        4 NUCLEI
  C    1    (CENTRE  1)   0.00000000  0.00000000  1.13026788  CHARGE =  6.0
  C    2    (CENTRE  2)   0.00000000  0.00000000 -1.13026788  CHARGE =  6.0
  H    3    (CENTRE  3)   0.00000000  0.00000000 -3.13613091  CHARGE =  1.0
  H    4    (CENTRE  4)   0.00000000  0.00000000  3.13613091  CHARGE =  1.0
CENTRE ASSIGNMENTS    1  1  1  1  1  1  1  1  1  1  1  1  1  1  1  1  1  1  1  1
CENTRE ASSIGNMENTS    1  1  1  1  1  1  1  1  1  1  1  1  1  1  1  1  1  1  1  1
CENTRE ASSIGNMENTS    1  1  2  2  2  2  2  2  2  2  2  2  2  2  2  2  2  2  2  2
CENTRE ASSIGNMENTS    2  2  2  2  2  2  2  2  2  2  2  2  2  2  2  2  2  2  2  2
CENTRE ASSIGNMENTS    2  2  2  2  3  3  3  3  3  3  3  3  3  3  3  3  4  4  4  4
CENTRE ASSIGNMENTS    4  4  4  4  4  4  4  4
TYPE ASSIGNMENTS      1  1  1  1  1  1  1  1  1  2  2  2  3  3  3  4  4  4  1  2
TYPE ASSIGNMENTS      3  4  1  2  3  4  1  2  3  4  5  6  7  8  9 10  5  6  7  8
TYPE ASSIGNMENTS      9 10  1  1  1  1  1  1  1  1  1  2  2  2  3  3  3  4  4  4
TYPE ASSIGNMENTS      1  2  3  4  1  2  3  4  1  2  3  4  5  6  7  8  9 10  5  6
TYPE ASSIGNMENTS      7  8  9 10  1  1  1  1  1  1  2  3  4  2  3  4  1  1  1  1
TYPE ASSIGNMENTS      1  1  2  3  4  2  3  4
EXPONENTS  0.4563240D+04 0.6820240D+03 0.1549730D+03 0.4445530D+02 0.1302900D+02
EXPONENTS  0.1827730D+01 0.2096420D+02 0.4803310D+01 0.1459330D+01 0.2096420D+02
EXPONENTS  0.4803310D+01 0.1459330D+01 0.2096420D+02 0.4803310D+01 0.1459330D+01
EXPONENTS  0.2096420D+02 0.4803310D+01 0.1459330D+01 0.4834560D+00 0.4834560D+00
EXPONENTS  0.4834560D+00 0.4834560D+00 0.1455850D+00 0.1455850D+00 0.1455850D+00
EXPONENTS  0.1455850D+00 0.4380000D-01 0.4380000D-01 0.4380000D-01 0.4380000D-01
EXPONENTS  0.1252000D+01 0.1252000D+01 0.1252000D+01 0.1252000D+01 0.1252000D+01
EXPONENTS  0.1252000D+01 0.3130000D+00 0.3130000D+00 0.3130000D+00 0.3130000D+00
EXPONENTS  0.3130000D+00 0.3130000D+00 0.4563240D+04 0.6820240D+03 0.1549730D+03
EXPONENTS  0.4445530D+02 0.1302900D+02 0.1827730D+01 0.2096420D+02 0.4803310D+01
EXPONENTS  0.1459330D+01 0.2096420D+02 0.4803310D+01 0.1459330D+01 0.2096420D+02
EXPONENTS  0.4803310D+01 0.1459330D+01 0.2096420D+02 0.4803310D+01 0.1459330D+01
EXPONENTS  0.4834560D+00 0.4834560D+00 0.4834560D+00 0.4834560D+00 0.1455850D+00
EXPONENTS  0.1455850D+00 0.1455850D+00 0.1455850D+00 0.4380000D-01 0.4380000D-01
EXPONENTS  0.4380000D-01 0.4380000D-01 0.1252000D+01 0.1252000D+01 0.1252000D+01
EXPONENTS  0.1252000D+01 0.1252000D+01 0.1252000D+01 0.3130000D+00 0.3130000D+00
EXPONENTS  0.3130000D+00 0.3130000D+00 0.3130000D+00 0.3130000D+00 0.3386500D+02
EXPONENTS  0.5094790D+01 0.1158790D+01 0.3258400D+00 0.1027410D+00 0.3600000D-01
EXPONENTS  0.1500000D+01 0.1500000D+01 0.1500000D+01 0.3750000D+00 0.3750000D+00
EXPONENTS  0.3750000D+00 0.3386500D+02 0.5094790D+01 0.1158790D+01 0.3258400D+00
EXPONENTS  0.1027410D+00 0.3600000D-01 0.1500000D+01 0.1500000D+01 0.1500000D+01
EXPONENTS  0.3750000D+00 0.3750000D+00 0.3750000D+00
MO    1     MO 0.0        OCC NO =    2.0000000  ORB. ENERGY =  -10.182228
  0.36916256D+00  0.68723037D+00  0.11304875D+01  0.15180550D+01  0.14293060D+01
  0.11745559D+00  0.31284122D+00  0.83127771D+00 -0.11206204D-02 -0.35342634D-16
 -0.33071998D-16 -0.25615541D-16 -0.16132102D-15 -0.15095673D-15 -0.11692182D-15
 -0.61515955D-03 -0.57563778D-03 -0.44585371D-03  0.60060711D-02 -0.28984031D-15
 -0.25742505D-17  0.18483150D-02  0.26802366D-02 -0.72965400D-16 -0.48519329D-16
  0.32723260D-03 -0.61913659D-03  0.10194012D-16  0.74755270D-18  0.67547147D-04
 -0.13861419D-02 -0.13861419D-02  0.27722837D-02 -0.11869709D-15 -0.23966548D-15
 -0.23694949D-15 -0.75229243D-03 -0.75229243D-03  0.15045849D-02  0.18455817D-16
  0.29369481D-15  0.12802565D-15  0.23524518D+00  0.43793073D+00  0.72039193D+00
  0.96736546D+00  0.91081105D+00  0.74847407D-01  0.19970280D+00  0.53064773D+00
 -0.71535021D-03  0.80473204D-16  0.75303091D-16  0.58325155D-16 -0.42008503D-16
 -0.39309609D-16 -0.30446812D-16  0.13855864D-02  0.12965675D-02  0.10042417D-02
  0.22894027D-02  0.21766035D-15  0.31260374D-16 -0.39047218D-02 -0.25542437D-03
  0.64689846D-16  0.47525743D-16 -0.95086450D-03  0.70903686D-03 -0.11129936D-16
 -0.29295843D-18  0.59652933D-04 -0.36949476D-03 -0.36949476D-03  0.73898953D-03
 -0.98501304D-17 -0.12204835D-14  0.72827209D-16 -0.28272815D-03 -0.28272815D-03
  0.56545630D-03 -0.13569778D-16  0.36863540D-15  0.82437497D-16  0.81940404D-04
  0.14780880D-03  0.21790913D-03 -0.30690245D-02 -0.37238191D-03 -0.15830405D-04
 -0.62808612D-15  0.60762125D-15 -0.14305851D-02  0.20223761D-15 -0.67437517D-16
 -0.18286482D-02  0.74959793D-04  0.13521677D-03  0.19934516D-03 -0.45705673D-02
 -0.33668243D-03 -0.14977843D-04 -0.13360988D-14  0.24822410D-16  0.19837589D-02
  0.48443781D-16 -0.30449200D-16  0.24866179D-02
MO    2     MO 0.0        OCC NO =    2.0000000  ORB. ENERGY =  -10.179508
 -0.23563832D+00 -0.43866261D+00 -0.72159587D+00 -0.96898215D+00 -0.91233322D+00
 -0.74972494D-01 -0.19884551D+00 -0.52836976D+00  0.71227935D-03  0.23626223D-15
  0.22108324D-15  0.17123752D-15  0.33317721D-16  0.31177178D-16  0.24147929D-16
 -0.24061476D-02 -0.22515614D-02 -0.17439213D-02 -0.75333963D-02  0.38045263D-16
 -0.84114262D-16  0.54539166D-02 -0.64730830D-02 -0.16952277D-15 -0.46599473D-16
  0.16010530D-02  0.29375074D-02  0.27273226D-16  0.24809498D-17 -0.27636430D-03
  0.21182180D-02  0.21182180D-02 -0.42364360D-02  0.22965882D-15 -0.75360310D-15
 -0.13539143D-14  0.95567552D-03  0.95567552D-03 -0.19113510D-02 -0.76836899D-17
  0.22165729D-15  0.28077236D-15  0.36941062D+00  0.68769216D+00  0.11312471D+01
  0.15190751D+01  0.14302664D+01  0.11753451D+00  0.31228179D+00  0.82979118D+00
 -0.11186165D-02 -0.56771186D-16 -0.53123842D-16 -0.41146469D-16 -0.47144771D-16
 -0.44115890D-16 -0.34169462D-16 -0.22093532D-02 -0.20674102D-02 -0.16012891D-02
  0.93861284D-02  0.67301408D-16  0.12824032D-15  0.42245467D-02  0.69972301D-02
  0.11337943D-15  0.62533247D-16  0.13158659D-02 -0.29167917D-02 -0.21385084D-16
 -0.31691899D-17 -0.27774913D-03 -0.25137287D-02 -0.25137287D-02  0.50274574D-02
 -0.72891961D-16 -0.76027234D-15 -0.48075028D-15 -0.11793695D-02 -0.11793695D-02
  0.23587390D-02  0.19616372D-17  0.25300792D-15  0.18781523D-15  0.14410126D-05
  0.25993811D-05  0.38321729D-05 -0.41905261D-02  0.21149360D-04  0.50426776D-05
  0.11124225D-15  0.87878757D-15 -0.16227184D-02  0.68171299D-16 -0.52616824D-16
 -0.19295083D-02  0.34175669D-04  0.61648031D-04  0.90885448D-04  0.25234717D-02
 -0.17775327D-03 -0.12044425D-04 -0.43901558D-15  0.54608115D-15 -0.86358904D-03
 -0.38018049D-16 -0.16087948D-15 -0.98836438D-03
MO    3     MO 0.0        OCC NO =    2.0000000  ORB. ENERGY =   -0.762123
 -0.73956333D-01 -0.13767658D+00 -0.22647668D+00 -0.30412017D+00 -0.28634060D+00
 -0.23530514D-01 -0.11762276D+00 -0.31254570D+00  0.42133343D-03  0.34924537D-15
  0.32680762D-15  0.25312513D-15  0.28878936D-15  0.27023569D-15  0.20930798D-15
 -0.21392666D+00 -0.20018265D+00 -0.15504920D+00  0.16014540D+00 -0.85562087D-15
 -0.71432433D-16 -0.54069552D-01  0.24473584D-01 -0.51592513D-15 -0.10885580D-15
 -0.34990849D-02 -0.46350139D-03  0.29621623D-16  0.10158741D-16 -0.68051514D-04
 -0.21337705D-01 -0.21337705D-01  0.42675410D-01  0.16921596D-15 -0.65517601D-15
  0.28578313D-15  0.56273771D-03  0.56273771D-03 -0.11254754D-02  0.14358880D-16
  0.21030118D-14  0.36898053D-15 -0.74834329D-01 -0.13931105D+00 -0.22916537D+00
 -0.30773063D+00 -0.28973999D+00 -0.23809863D-01 -0.11901562D+00 -0.31624678D+00
  0.42632276D-03 -0.51957020D-15 -0.48618970D-15 -0.37657271D-15  0.22505027D-15
  0.21059160D-15  0.16311134D-15  0.20895384D+00  0.19552931D+00  0.15144501D+00
  0.16157566D+00  0.11266567D-14  0.40863148D-15  0.52374899D-01  0.25529634D-01
  0.54880832D-15  0.11716794D-15  0.33907602D-02 -0.36264040D-03 -0.30610310D-16
 -0.60223133D-17  0.81549906D-04 -0.21497750D-01 -0.21497750D-01  0.42995500D-01
  0.11872599D-15 -0.67333983D-15 -0.64567840D-16  0.55017910D-03  0.55017910D-03
 -0.11003582D-02  0.16065993D-16  0.18385743D-14  0.40232958D-15  0.11869189D-01
  0.21410324D-01  0.31564461D-01  0.22304501D-01  0.20893980D-02  0.29217021D-03
  0.19364550D-15 -0.45633256D-16  0.68494416D-02  0.56643511D-15  0.20267423D-15
  0.55422314D-02  0.11081768D-01  0.19989929D-01  0.29470424D-01  0.21157018D-01
  0.17692125D-02  0.26466129D-03 -0.10225299D-15 -0.54726816D-15 -0.63844974D-02
 -0.95083339D-15 -0.62739398D-16 -0.56317195D-02
MO    4     MO 0.0        OCC NO =    2.0000000  ORB. ENERGY =   -0.575435
 -0.49237305D-01 -0.91659814D-01 -0.15077953D+00 -0.20247161D+00 -0.19063465D+00
 -0.15665718D-01 -0.80012044D-01 -0.21260698D+00  0.28660907D-03  0.84200260D-15
  0.78790697D-15  0.61026441D-15  0.39091222D-15  0.36579753D-15  0.28332432D-15
  0.21341782D+00  0.19970650D+00  0.15468040D+00  0.11244469D+00 -0.23906989D-15
  0.65907318D-16  0.62753700D-01  0.37045043D-01  0.30274461D-16  0.76974397D-16
  0.40523489D-02 -0.16831389D-01  0.25024416D-16  0.61197974D-17  0.20123852D-02
 -0.13543701D-01 -0.13543701D-01  0.27087403D-01  0.18529329D-15  0.77824345D-16
  0.34242972D-15 -0.57426642D-03 -0.57426642D-03  0.11485328D-02  0.15391793D-16
  0.92410778D-15 -0.15516157D-15  0.47421180D-01  0.88278928D-01  0.14521801D+00
  0.19500341D+00  0.18360306D+00  0.15087886D-01  0.77049384D-01  0.20473464D+00
 -0.27599660D-03 -0.20416292D-15 -0.19104619D-15 -0.14797266D-15 -0.22478093D-15
 -0.21033957D-15 -0.16291613D-15  0.27889146D+00  0.26097370D+00  0.20213421D+00
 -0.10707019D+00  0.54997380D-15  0.38076299D-16  0.81074308D-01 -0.37837017D-01
  0.70760961D-16 -0.52139582D-16  0.57159356D-02  0.17224750D-01 -0.27379823D-16
 -0.33191313D-17  0.19954896D-02  0.12669532D-01  0.12669532D-01 -0.25339064D-01
 -0.29292262D-15 -0.17526102D-15  0.39934937D-15  0.10832135D-02  0.10832135D-02
 -0.21664271D-02 -0.12379747D-16  0.72931496D-15 -0.18265137D-15 -0.36954203D-01
 -0.66660110D-01 -0.98274573D-01 -0.57150648D-01 -0.63372133D-02  0.49407833D-03
 -0.13854316D-15 -0.13848772D-16 -0.28683262D-01  0.46316706D-15 -0.10977732D-15
 -0.42844555D-02  0.32367136D-01  0.58385696D-01  0.86075905D-01  0.50690572D-01
  0.41948033D-02 -0.77015443D-03  0.41601210D-15 -0.13642315D-15 -0.25242958D-01
 -0.83577101D-15  0.61375678D-16 -0.50095285D-02
MO    5     MO 0.0        OCC NO =    2.0000000  ORB. ENERGY =   -0.506581
 -0.47032069D-02 -0.87554562D-02 -0.14402643D-01 -0.19340333D-01 -0.18209652D-01
 -0.14964083D-02 -0.74510898D-02 -0.19798941D-01  0.26690355D-04  0.58160877D-15
  0.54424251D-15  0.42153686D-15 -0.14619881D-16 -0.13680606D-16 -0.10596158D-16
  0.51257749D+00  0.47964624D+00  0.37150455D+00  0.19811218D-02  0.63317478D-15
  0.31507759D-16  0.14708742D+00  0.23464887D-01  0.28882041D-15  0.39972464D-16
  0.14100581D-01 -0.89762005D-03 -0.28682285D-16 -0.75438919D-17  0.39958406D-03
  0.39469140D-02  0.39469140D-02 -0.78938279D-02 -0.23208199D-15 -0.42388714D-15
  0.53942614D-15 -0.40596753D-02 -0.40596753D-02  0.81193506D-02  0.15487233D-16
  0.36455210D-17 -0.11466660D-15  0.24371265D-02  0.45369373D-02  0.74632192D-02
  0.10021851D-01  0.94359503D-02  0.77541485D-03  0.42163515D-02  0.11203635D-01
 -0.15103283D-04  0.74370940D-16  0.69592876D-16  0.53902373D-16 -0.17519059D-15
 -0.16393523D-15 -0.12697417D-15 -0.47625950D+00 -0.44566155D+00 -0.34518210D+00
 -0.14458611D-01 -0.22402674D-16 -0.10308542D-15 -0.13632595D+00  0.14984844D-01
 -0.13899251D-15 -0.49890929D-16 -0.13652385D-01 -0.15429232D-03  0.24588208D-16
  0.69563883D-17 -0.17255442D-03  0.53856533D-02  0.53856533D-02 -0.10771307D-01
  0.38546942D-15  0.18257721D-15  0.31582174D-15 -0.39541934D-02 -0.39541934D-02
  0.79083869D-02 -0.24999122D-16 -0.45512067D-15 -0.10826348D-15  0.33270574D-01
  0.60015368D-01  0.88478472D-01  0.41907803D-01  0.59521260D-02  0.73683367D-03
 -0.21946969D-15  0.49046187D-16  0.28062210D-01 -0.22373081D-15 -0.24027340D-17
 -0.24296869D-02  0.37634237D-01  0.67886794D-01  0.10008303D+00  0.47789233D-01
  0.47580739D-02  0.28539158D-03  0.29251906D-15 -0.24414983D-15 -0.32090672D-01
 -0.48215249D-15  0.44953732D-16  0.13385193D-02
MO    6     MO 0.0        OCC NO =    2.0000000  ORB. ENERGY =   -0.301926
  0.78459351D-17  0.14605936D-16  0.24026628D-16  0.32263729D-16  0.30377517D-16
  0.24963228D-17  0.55532310D-17  0.14755975D-16 -0.19892085D-19 -0.88037302D-01
 -0.82381224D-01 -0.63807442D-01  0.48765320D+00  0.45632324D+00  0.35343999D+00
 -0.51518341D-15 -0.48208474D-15 -0.37339326D-15 -0.18677641D-14 -0.28983137D-01
  0.16054240D+00  0.27916120D-14  0.82043579D-14 -0.46684815D-02  0.25859492D-01
 -0.10914709D-14  0.16127041D-13 -0.85308713D-04  0.47253909D-03 -0.12297921D-14
  0.19691922D-15  0.30692572D-15 -0.50384495D-15  0.67765638D-15  0.10713812D-01
 -0.59345581D-01 -0.10816512D-14 -0.10217716D-14  0.21034228D-14 -0.22818840D-15
  0.12059479D-02 -0.66799454D-02  0.41720119D-16  0.77665874D-16  0.12775963D-15
  0.17155974D-15  0.16152997D-15  0.13273993D-16  0.80471160D-16  0.21382694D-15
 -0.28825365D-18 -0.89107661D-01 -0.83382816D-01 -0.64583214D-01  0.49358209D+00
  0.46187123D+00  0.35773712D+00  0.63166093D-15  0.59107900D-15  0.45781353D-15
 -0.20657351D-14 -0.29257717D-01  0.16206334D+00 -0.36786201D-14  0.56898595D-15
 -0.49574559D-02  0.27460169D-01 -0.36597334D-14 -0.12364673D-13 -0.18099237D-03
  0.10025467D-02 -0.26624330D-14  0.13348333D-15  0.20103552D-15 -0.33451886D-15
 -0.11605261D-16 -0.10340528D-01  0.57277896D-01 -0.82093491D-15 -0.86133257D-15
  0.16822675D-14  0.13226628D-15 -0.11896360D-02  0.65895908D-02  0.71003769D-16
  0.12808067D-15  0.18882467D-15 -0.51930062D-14 -0.43577763D-14 -0.25582184D-14
 -0.22725508D-02  0.12588035D-01  0.11550196D-15 -0.18327874D-02  0.10152113D-01
 -0.30362548D-14  0.13305520D-17  0.24001260D-17  0.35384184D-17 -0.45634763D-14
 -0.98057041D-15  0.11226977D-15 -0.22159874D-02  0.12274721D-01  0.22667660D-15
 -0.16880311D-02  0.93502840D-02  0.25833965D-14
MO    7     MO 0.0        OCC NO =    2.0000000  ORB. ENERGY =   -0.301925
 -0.13836835D-15 -0.25758553D-15 -0.42372577D-15 -0.56899259D-15 -0.53572797D-15
 -0.44024334D-16 -0.37218063D-15 -0.98895362D-15  0.13331786D-17  0.48765320D+00
  0.45632324D+00  0.35343999D+00  0.88037302D-01  0.82381224D-01  0.63807442D-01
  0.54146616D-14  0.50667892D-14  0.39244241D-14  0.42088060D-14  0.16054240D+00
  0.28983137D-01 -0.31676335D-13  0.14294102D-12  0.25859492D-01  0.46684815D-02
 -0.10475161D-12  0.59852710D-12  0.47253909D-03  0.85308713D-04 -0.83844522D-13
  0.44981762D-15  0.33830826D-15 -0.78812587D-15  0.18399321D-15 -0.59345581D-01
 -0.10713812D-01 -0.58777923D-15 -0.48596356D-15  0.10737428D-14 -0.11552069D-15
 -0.66799454D-02 -0.12059479D-02  0.32853374D-15  0.61159605D-15  0.10060698D-14
  0.13509828D-14  0.12720013D-14  0.10452881D-15  0.84556426D-15  0.22468226D-14
 -0.30288738D-17  0.49358209D+00  0.46187123D+00  0.35773712D+00  0.89107661D-01
  0.83382816D-01  0.64583214D-01  0.66420054D-14  0.62152805D-14  0.48139750D-14
  0.59587605D-14  0.16206334D+00  0.29257717D-01 -0.11447616D-13 -0.17127475D-12
  0.27460169D-01  0.49574559D-02 -0.95514296D-13 -0.60171047D-12  0.10025467D-02
  0.18099237D-03 -0.82274015D-13 -0.16758256D-14 -0.15352543D-14  0.32110799D-14
  0.23071961D-15  0.57277896D-01  0.10340528D-01  0.61339417D-14  0.60836367D-14
 -0.12217578D-13 -0.58413099D-16  0.65895908D-02  0.11896360D-02  0.15025336D-14
  0.27103562D-14  0.39957795D-14 -0.49910512D-14 -0.63391128D-13 -0.59853403D-13
  0.12588035D-01  0.22725508D-02  0.41383661D-14  0.10152113D-01  0.18327874D-02
 -0.37298629D-14 -0.17315722D-14 -0.31235092D-14 -0.46048759D-14  0.36208502D-13
  0.78787271D-13  0.60991282D-13  0.12274721D-01  0.22159874D-02  0.45478273D-14
  0.93502840D-02  0.16880311D-02 -0.21148556D-13
END DATA
 THE  HF ENERGY =    -77.359717324808 THE VIRIAL(-V/T)=   2.00454014
