 acetylene B3LYP/6-311++G(2d,2p)                         
GAUSSIAN              7 MOL ORBITALS    108 PRIMITIVES        4 NUCLEI
  C    1    (CENTRE  1)   0.00000000  0.00000000  1.13026788  CHARGE =  6.0
  C    2    (CENTRE  2)   0.00000000  0.00000000 -1.13026788  CHARGE =  6.0
  H    3    (CENTRE  3)   0.00000000  0.00000000 -3.13613091  CHARGE =  1.0
  H    4    (CENTRE  4)   0.00000000  0.00000000  3.13613091  CHARGE =  1.0
CENTRE ASSIGNMENTS    1  1  1  1  1  1  1  1  1  1  1  1  1  1  1  1  1  1  1  1
CENTRE ASSIGNMENTS    1  1  1  1  1  1  1  1  1  1  1  1  1  1  1  1  1  1  1  1
CENTRE ASSIGNMENTS    1  1  2  2  2  2  2  2  2  2  2  2  2  2  2  2  2  2  2  2
CENTRE ASSIGNMENTS    2  2  2  2  2  2  2  2  2  2  2  2  2  2  2  2  2  2  2  2
CENTRE ASSIGNMENTS    2  2  2  2  3  3  3  3  3  3  3  3  3  3  3  3  4  4  4  4
CENTRE ASSIGNMENTS    4  4  4  4  4  4  4  4
TYPE ASSIGNMENTS      1  1  1  1  1  1  1  1  1  2  2  2  3  3  3  4  4  4  1  2
TYPE ASSIGNMENTS      3  4  1  2  3  4  1  2  3  4  5  6  7  8  9 10  5  6  7  8
TYPE ASSIGNMENTS      9 10  1  1  1  1  1  1  1  1  1  2  2  2  3  3  3  4  4  4
TYPE ASSIGNMENTS      1  2  3  4  1  2  3  4  1  2  3  4  5  6  7  8  9 10  5  6
TYPE ASSIGNMENTS      7  8  9 10  1  1  1  1  1  1  2  3  4  2  3  4  1  1  1  1
TYPE ASSIGNMENTS      1  1  2  3  4  2  3  4
EXPONENTS  0.4563240D+04 0.6820240D+03 0.1549730D+03 0.4445530D+02 0.1302900D+02
EXPONENTS  0.1827730D+01 0.2096420D+02 0.4803310D+01 0.1459330D+01 0.2096420D+02
EXPONENTS  0.4803310D+01 0.1459330D+01 0.2096420D+02 0.4803310D+01 0.1459330D+01
EXPONENTS  0.2096420D+02 0.4803310D+01 0.1459330D+01 0.4834560D+00 0.4834560D+00
EXPONENTS  0.4834560D+00 0.4834560D+00 0.1455850D+00 0.1455850D+00 0.1455850D+00
EXPONENTS  0.1455850D+00 0.4380000D-01 0.4380000D-01 0.4380000D-01 0.4380000D-01
EXPONENTS  0.1252000D+01 0.1252000D+01 0.1252000D+01 0.1252000D+01 0.1252000D+01
EXPONENTS  0.1252000D+01 0.3130000D+00 0.3130000D+00 0.3130000D+00 0.3130000D+00
EXPONENTS  0.3130000D+00 0.3130000D+00 0.4563240D+04 0.6820240D+03 0.1549730D+03
EXPONENTS  0.4445530D+02 0.1302900D+02 0.1827730D+01 0.2096420D+02 0.4803310D+01
EXPONENTS  0.1459330D+01 0.2096420D+02 0.4803310D+01 0.1459330D+01 0.2096420D+02
EXPONENTS  0.4803310D+01 0.1459330D+01 0.2096420D+02 0.4803310D+01 0.1459330D+01
EXPONENTS  0.4834560D+00 0.4834560D+00 0.4834560D+00 0.4834560D+00 0.1455850D+00
EXPONENTS  0.1455850D+00 0.1455850D+00 0.1455850D+00 0.4380000D-01 0.4380000D-01
EXPONENTS  0.4380000D-01 0.4380000D-01 0.1252000D+01 0.1252000D+01 0.1252000D+01
EXPONENTS  0.1252000D+01 0.1252000D+01 0.1252000D+01 0.3130000D+00 0.3130000D+00
EXPONENTS  0.3130000D+00 0.3130000D+00 0.3130000D+00 0.3130000D+00 0.3386500D+02
EXPONENTS  0.5094790D+01 0.1158790D+01 0.3258400D+00 0.1027410D+00 0.3600000D-01
EXPONENTS  0.1500000D+01 0.1500000D+01 0.1500000D+01 0.3750000D+00 0.3750000D+00
EXPONENTS  0.3750000D+00 0.3386500D+02 0.5094790D+01 0.1158790D+01 0.3258400D+00
EXPONENTS  0.1027410D+00 0.3600000D-01 0.1500000D+01 0.1500000D+01 0.1500000D+01
EXPONENTS  0.3750000D+00 0.3750000D+00 0.3750000D+00
MO    1     MO 0.0        OCC NO =    2.0000000  ORB. ENERGY =  -10.182475
  0.23524509D+00  0.43793057D+00  0.72039167D+00  0.96736511D+00  0.91081071D+00
  0.74847380D-01  0.19970273D+00  0.53064754D+00 -0.71534995D-03  0.82058334D-15
  0.76786383D-15  0.59474021D-15  0.19426103D-15  0.18178046D-15  0.14079599D-15
 -0.13855873D-02 -0.12965684D-02 -0.10042423D-02  0.22894005D-02 -0.36422756D-15
 -0.89594168D-16  0.39047229D-02 -0.25542601D-03 -0.10596809D-15 -0.11898871D-16
  0.95086483D-03  0.70903756D-03 -0.23579447D-16  0.21914949D-17 -0.59653000D-04
 -0.36949413D-03 -0.36949413D-03  0.73898827D-03 -0.53551159D-15  0.68387940D-15
 -0.66819959D-15 -0.28272788D-03 -0.28272788D-03  0.56545576D-03  0.25764895D-16
  0.30311866D-15  0.23363340D-15  0.36916261D+00  0.68723047D+00  0.11304877D+01
  0.15180552D+01  0.14293062D+01  0.11745560D+00  0.31284127D+00  0.83127783D+00
 -0.11206206D-02 -0.25163645D-15 -0.23546972D-15 -0.18238040D-15 -0.86045071D-16
 -0.80516986D-16 -0.62363518D-16  0.61515923D-03  0.57563747D-03  0.44585347D-03
  0.60060729D-02  0.13762942D-15  0.13564698D-15 -0.18483138D-02  0.26802382D-02
  0.88490630D-16  0.28231194D-16 -0.32723223D-03 -0.61913731D-03  0.28248302D-16
 -0.14611342D-17 -0.67547214D-04 -0.13861424D-02 -0.13861424D-02  0.27722847D-02
  0.22141385D-15 -0.45031001D-15  0.43649590D-15 -0.75229268D-03 -0.75229268D-03
  0.15045854D-02 -0.14681094D-16  0.51094624D-15  0.92999805D-16  0.74959786D-04
  0.13521676D-03  0.19934514D-03 -0.45705680D-02 -0.33668239D-03 -0.14977839D-04
 -0.47889235D-15  0.92579370D-16 -0.19837591D-02  0.29646789D-15  0.97327759D-17
 -0.24866182D-02  0.81940405D-04  0.14780880D-03  0.21790913D-03 -0.30690236D-02
 -0.37238192D-03 -0.15830405D-04 -0.14973753D-14  0.75266614D-15  0.14305847D-02
  0.10580347D-15 -0.20796238D-15  0.18286477D-02
MO    2     MO 0.0        OCC NO =    2.0000000  ORB. ENERGY =  -10.179557
  0.36941068D+00  0.68769227D+00  0.11312473D+01  0.15190753D+01  0.14302666D+01
  0.11753453D+00  0.31228183D+00  0.82979131D+00 -0.11186166D-02 -0.79921373D-15
 -0.74786714D-15 -0.57925201D-15  0.10597129D-15  0.99163017D-16  0.76805589D-16
  0.22093523D-02  0.20674094D-02  0.16012885D-02  0.93861289D-02  0.15365985D-15
  0.12589294D-16 -0.42245456D-02  0.69972300D-02  0.71688915D-17  0.24975228D-16
 -0.13158657D-02 -0.29167917D-02  0.65032989D-17 -0.28132410D-17  0.27774913D-03
 -0.25137288D-02 -0.25137288D-02  0.50274575D-02 -0.34778763D-15  0.61726363D-15
 -0.25356228D-15 -0.11793696D-02 -0.11793696D-02  0.23587392D-02  0.15760490D-16
 -0.11589248D-16 -0.20696924D-16 -0.23563824D+00 -0.43866245D+00 -0.72159561D+00
 -0.96898179D+00 -0.91233289D+00 -0.74972467D-01 -0.19884544D+00 -0.52836957D+00
  0.71227909D-03 -0.43268007D-15 -0.40488194D-15 -0.31359671D-15  0.20698462D-16
  0.19368661D-16  0.15001776D-16  0.24061476D-02  0.22515614D-02  0.17439213D-02
 -0.75333950D-02  0.36699857D-15  0.58244871D-17 -0.54539169D-02 -0.64730823D-02
 -0.34053331D-16 -0.33158827D-17 -0.16010531D-02  0.29375073D-02  0.61599002D-18
  0.13596970D-17  0.27636429D-03  0.21182177D-02  0.21182177D-02 -0.42364353D-02
  0.12320461D-15  0.78319421D-15  0.77647275D-15  0.95567535D-03  0.95567535D-03
 -0.19113507D-02 -0.76831376D-17 -0.12745182D-15 -0.98512550D-16  0.34175685D-04
  0.61648060D-04  0.90885491D-04  0.25234707D-02 -0.17775333D-03 -0.12044422D-04
  0.26587800D-16  0.40656186D-15  0.86358860D-03 -0.77346487D-16 -0.95904490D-16
  0.98836384D-03  0.14410322D-05  0.25994164D-05  0.38322250D-05 -0.41905269D-02
  0.21149254D-04  0.50426684D-05  0.40586948D-16  0.42141643D-15  0.16227187D-02
 -0.11616667D-15 -0.39962941D-16  0.19295088D-02
MO    3     MO 0.0        OCC NO =    2.0000000  ORB. ENERGY =   -0.762268
 -0.74834328D-01 -0.13931105D+00 -0.22916536D+00 -0.30773062D+00 -0.28973998D+00
 -0.23809863D-01 -0.11901562D+00 -0.31624678D+00  0.42632275D-03  0.40623316D-15
  0.38013415D-15  0.29442859D-15  0.52597963D-15  0.49218734D-15  0.38121812D-15
 -0.20895384D+00 -0.19552931D+00 -0.15144501D+00  0.16157566D+00 -0.93258564D-15
 -0.41584717D-15 -0.52374899D-01  0.25529634D-01 -0.56016781D-15 -0.61711214D-16
 -0.33907601D-02 -0.36264016D-03  0.29460132D-16  0.41497604D-18 -0.81549916D-04
 -0.21497750D-01 -0.21497750D-01  0.42995499D-01 -0.64504706D-15 -0.30381311D-15
 -0.57307337D-15  0.55017917D-03  0.55017917D-03 -0.11003583D-02 -0.58771836D-17
  0.20345108D-14  0.45727814D-15 -0.73956334D-01 -0.13767658D+00 -0.22647668D+00
 -0.30412017D+00 -0.28634061D+00 -0.23530514D-01 -0.11762276D+00 -0.31254570D+00
  0.42133344D-03 -0.31043894D-15 -0.29049436D-15 -0.22499911D-15 -0.14247717D-15
 -0.13332353D-15 -0.10326422D-15  0.21392665D+00  0.20018264D+00  0.15504919D+00
  0.16014540D+00  0.10315615D-14  0.28351480D-15  0.54069550D-01  0.24473586D-01
  0.49551857D-15  0.57807664D-16  0.34990848D-02 -0.46350157D-03 -0.16111357D-16
 -0.58627886D-17  0.68051464D-04 -0.21337705D-01 -0.21337705D-01  0.42675410D-01
 -0.59293700D-15 -0.11202750D-14  0.10604372D-15  0.56273782D-03  0.56273782D-03
 -0.11254756D-02 -0.80642939D-17  0.21481262D-14  0.33816334D-15  0.11081769D-01
  0.19989931D-01  0.29470427D-01  0.21157020D-01  0.17692126D-02  0.26466124D-03
 -0.17143248D-15 -0.91577514D-15  0.63844981D-02  0.10564540D-14  0.26207669D-15
  0.56317198D-02  0.11869189D-01  0.21410324D-01  0.31564461D-01  0.22304501D-01
  0.20893981D-02  0.29217020D-03 -0.38748589D-16  0.44996588D-15 -0.68494413D-02
 -0.84667571D-15 -0.27528821D-15 -0.55422314D-02
MO    4     MO 0.0        OCC NO =    2.0000000  ORB. ENERGY =   -0.575758
  0.47421180D-01  0.88278929D-01  0.14521801D+00  0.19500341D+00  0.18360306D+00
  0.15087886D-01  0.77049385D-01  0.20473464D+00 -0.27599660D-03 -0.37236404D-15
 -0.34844100D-15 -0.26988102D-15 -0.10470572D-15 -0.97978754D-16 -0.75888332D-16
 -0.27889141D+00 -0.26097364D+00 -0.20213417D+00 -0.10707019D+00 -0.17433986D-15
 -0.33790469D-16 -0.81074292D-01 -0.37837015D-01 -0.12738651D-15 -0.91219466D-16
 -0.57159350D-02  0.17224751D-01 -0.14218862D-16 -0.41823370D-17 -0.19954896D-02
  0.12669532D-01  0.12669532D-01 -0.25339065D-01 -0.12337495D-14  0.95846759D-15
 -0.50488966D-15  0.10832130D-02  0.10832130D-02 -0.21664261D-02  0.82272320D-16
 -0.33738116D-16  0.17448224D-15 -0.49237304D-01 -0.91659811D-01 -0.15077953D+00
 -0.20247160D+00 -0.19063464D+00 -0.15665718D-01 -0.80012042D-01 -0.21260698D+00
  0.28660906D-03 -0.70868416D-15 -0.66315376D-15 -0.51363822D-15  0.36450752D-15
  0.34108923D-15  0.26418679D-15 -0.21341787D+00 -0.19970654D+00 -0.15468044D+00
  0.11244469D+00 -0.89078387D-16  0.12152491D-15 -0.62753714D-01  0.37045044D-01
 -0.40553688D-16  0.84781350D-16 -0.40523510D-02 -0.16831389D-01  0.19122328D-16
  0.62093309D-17 -0.20123853D-02 -0.13543700D-01 -0.13543700D-01  0.27087400D-01
  0.44089120D-15  0.53161361D-15 -0.88005060D-15 -0.57426676D-03 -0.57426676D-03
  0.11485335D-02 -0.57973588D-16  0.20596474D-15  0.26519159D-15  0.32367140D-01
  0.58385702D-01  0.86075915D-01  0.50690577D-01  0.41948040D-02 -0.77015444D-03
 -0.26284135D-15 -0.14019247D-15  0.25242960D-01  0.39128293D-15  0.17314120D-15
  0.50095282D-02 -0.36954200D-01 -0.66660105D-01 -0.98274565D-01 -0.57150645D-01
 -0.63372136D-02  0.49407837D-03 -0.84903635D-15 -0.34608003D-15  0.28683258D-01
  0.40558972D-15 -0.44745608D-17  0.42844556D-02
MO    5     MO 0.0        OCC NO =    2.0000000  ORB. ENERGY =   -0.506455
 -0.24371232D-02 -0.45369310D-02 -0.74632089D-02 -0.10021837D-01 -0.94359373D-02
 -0.77541379D-03 -0.42163460D-02 -0.11203621D-01  0.15103264D-04  0.10096852D-15
  0.94481661D-16  0.73179699D-16 -0.52538056D-16 -0.49162676D-16 -0.38078393D-16
 -0.47625952D+00 -0.44566157D+00 -0.34518211D+00  0.14458603D-01 -0.29962774D-15
 -0.87239646D-17 -0.13632595D+00 -0.14984847D-01 -0.19496949D-15 -0.63132714D-17
 -0.13652386D-01  0.15429434D-03  0.45180281D-16 -0.20671854D-17 -0.17255464D-03
 -0.53856527D-02 -0.53856527D-02  0.10771305D-01  0.11354655D-16 -0.35443683D-15
 -0.76894743D-15  0.39541934D-02  0.39541934D-02 -0.79083867D-02  0.19426563D-17
  0.27923653D-15 -0.11857887D-16  0.47032007D-02  0.87554446D-02  0.14402624D-01
  0.19340307D-01  0.18209628D-01  0.14964064D-02  0.74510796D-02  0.19798914D-01
 -0.26690319D-04 -0.12943574D-15 -0.12111997D-15 -0.93812095D-16  0.21813486D-15
  0.20412049D-15  0.15809921D-15  0.51257746D+00  0.47964621D+00  0.37150453D+00
 -0.19811070D-02  0.42861228D-15 -0.17299688D-15  0.14708741D+00 -0.23464882D-01
  0.19588625D-15  0.19615625D-16  0.14100581D-01  0.89761813D-03 -0.42116416D-16
  0.12748263D-17  0.39958380D-03 -0.39469154D-02 -0.39469154D-02  0.78938308D-02
  0.73372442D-15  0.14410636D-14  0.24785088D-15  0.40596751D-02  0.40596751D-02
 -0.81193503D-02 -0.34069734D-16  0.13012933D-15 -0.73455569D-16 -0.37634234D-01
 -0.67886789D-01 -0.10008302D+00 -0.47789229D-01 -0.47580743D-02 -0.28539172D-03
 -0.66562471D-15  0.73832708D-15 -0.32090669D-01 -0.17161646D-15 -0.13642647D-15
  0.13385199D-02 -0.33270577D-01 -0.60015374D-01 -0.88478481D-01 -0.41907809D-01
 -0.59521275D-02 -0.73683367D-03  0.70713998D-15  0.59403802D-15  0.28062211D-01
  0.19836830D-16 -0.56568536D-16 -0.24296865D-02
MO    6     MO 0.0        OCC NO =    2.0000000  ORB. ENERGY =   -0.302052
 -0.11167263D-15 -0.20788896D-15 -0.34197539D-15 -0.45921555D-15 -0.43236875D-15
 -0.35530619D-16 -0.33849593D-15 -0.89944707D-15  0.12125175D-17  0.49600123D+00
  0.46413494D+00  0.35949045D+00  0.74473003D-01  0.69688382D-01  0.53976345D-01
  0.55300506D-14  0.51747648D-14  0.40080554D-14 -0.21549469D-14  0.16285764D+00
  0.24452556D-01 -0.18616202D-13  0.13646691D-12  0.27594757D-01  0.41432649D-02
 -0.84811597D-13  0.45425257D-12  0.10074604D-02  0.15126696D-03 -0.63224821D-13
  0.71219976D-15  0.84196565D-15 -0.15541654D-14 -0.47549937D-15 -0.57558627D-01
 -0.86422444D-02 -0.34435105D-14 -0.33632609D-14  0.68067714D-14 -0.65442357D-16
 -0.66218876D-02 -0.99425531D-03  0.78152101D-16  0.14548739D-15  0.23932539D-15
  0.32137383D-15  0.30258558D-15  0.24865471D-16  0.38836152D-15  0.10319493D-14
 -0.13911397D-17  0.49004328D+00  0.45855977D+00  0.35517227D+00  0.73578436D-01
  0.68851288D-01  0.53327984D-01  0.55368395D-14  0.51811176D-14  0.40129758D-14
 -0.84462967D-16  0.16132925D+00  0.24223072D-01 -0.22163625D-13 -0.13295156D-12
  0.25986236D-01  0.39017505D-02 -0.85544848D-13 -0.45611415D-12  0.47485519D-03
  0.71297993D-04 -0.62741169D-13 -0.84925467D-15 -0.40888431D-15  0.12581390D-14
 -0.12708864D-15  0.59636444D-01  0.89542220D-02  0.24950844D-14  0.23762413D-14
 -0.48713257D-14  0.85534850D-16  0.67126843D-02  0.10078881D-02  0.14297304D-14
  0.25790297D-14  0.38021696D-14 -0.20842973D-13 -0.58496465D-13 -0.44495928D-13
  0.12334882D-01  0.18520433D-02  0.34805587D-14  0.93961120D-02  0.14107963D-02
 -0.12272571D-13 -0.14968680D-14 -0.27001363D-14 -0.39807126D-14  0.15808946D-13
  0.58123521D-13  0.45859650D-13  0.12649731D-01  0.18993169D-02  0.39305312D-14
  0.10201870D-01  0.15317783D-02 -0.99965477D-14
MO    7     MO 0.0        OCC NO =    2.0000000  ORB. ENERGY =   -0.302052
 -0.31041242D-16 -0.57786152D-16 -0.95057677D-16 -0.12764651D-15 -0.12018400D-15
 -0.98763192D-17 -0.12013347D-15 -0.31921711D-15  0.43032697D-18 -0.74473003D-01
 -0.69688382D-01 -0.53976345D-01  0.49600123D+00  0.46413494D+00  0.35949045D+00
 -0.30549098D-15 -0.28586429D-15 -0.22141294D-15 -0.10648282D-14 -0.24452556D-01
  0.16285764D+00  0.44723519D-15  0.10813144D-13 -0.41432649D-02  0.27594757D-01
 -0.57897659D-14  0.39899403D-13 -0.15126696D-03  0.10074604D-02 -0.50412045D-14
  0.35477141D-15  0.32378671D-16 -0.38715008D-15 -0.11410043D-15  0.86422444D-02
 -0.57558627D-01 -0.62539472D-15 -0.54818057D-15  0.11735753D-14 -0.11102497D-15
  0.99425531D-03 -0.66218876D-02  0.24821253D-16  0.46207067D-16  0.76010191D-16
  0.10206893D-15  0.96101745D-16  0.78973201D-17  0.98486527D-17  0.26169714D-16
 -0.35278603D-19 -0.73578436D-01 -0.68851288D-01 -0.53327984D-01  0.49004328D+00
  0.45855977D+00  0.35517227D+00  0.68410034D-15  0.64014936D-15  0.49582043D-15
 -0.82000006D-15 -0.24223072D-01  0.16132925D+00 -0.24477569D-14 -0.72738282D-14
 -0.39017505D-02  0.25986236D-01 -0.65906686D-14 -0.38303451D-13 -0.71297993D-04
  0.47485519D-03 -0.56657861D-14 -0.16593599D-15  0.48705293D-16  0.11723069D-15
 -0.29601033D-15 -0.89542220D-02  0.59636444D-01 -0.36011697D-15 -0.35194812D-15
  0.71206509D-15  0.17447897D-15 -0.10078881D-02  0.67126843D-02  0.12841401D-15
  0.23164056D-15  0.34149924D-15 -0.35249865D-14 -0.56776293D-14 -0.42692857D-14
 -0.18520433D-02  0.12334882D-01  0.16990331D-15 -0.14107963D-02  0.93961120D-02
 -0.20203161D-14 -0.12178304D-15 -0.21967924D-15 -0.32386510D-15 -0.62932517D-15
  0.36062687D-14  0.32253879D-14 -0.18993169D-02  0.12649731D-01  0.43561247D-15
 -0.15317783D-02  0.10201870D-01  0.31305160D-15
END DATA
 THE  HF ENERGY =    -77.359717324810 THE VIRIAL(-V/T)=   2.00454014
