fchk produced by OCC                                                    
SP         r2scan                                                 sto-3g
Number of atoms                            I               13
Charge                                     I                0
Multiplicity                               I                1
Number of electrons                        I               48
Number of alpha electrons                  I               24
Number of beta electrons                   I               24
Number of basis functions                  I               37
Number of independent functions            I               37
Number of point charges in /Mol/           I                0
Number of translation vectors              I                0
Atomic numbers                             I   N=          13
           6           1           6           8           8           7
           6           1           1           1           1           1
           1
Nuclear charges                            R   N=          13
  6.00000000e+00  1.00000000e+00  6.00000000e+00  8.00000000e+00  8.00000000e+00
  7.00000000e+00  6.00000000e+00  1.00000000e+00  1.00000000e+00  1.00000000e+00
  1.00000000e+00  1.00000000e+00  1.00000000e+00
Current cartesian coordinates              R   N=          39
  7.06703143e+00  1.08730911e+01  7.85439933e+00  7.18948812e+00  1.03804322e+01
  5.86303540e+00  4.37703329e+00  1.18509953e+01  8.32551954e+00  4.10574631e+00
  1.37819799e+01  9.64915404e+00  2.61569242e+00  1.05875601e+01  7.32207058e+00
  8.93704030e+00  1.29010124e+01  8.40179835e+00  7.62470729e+00  8.56278386e+00
  9.48732239e+00  9.45958784e+00  7.76201665e+00  9.04889310e+00  6.22438932e+00
  7.11255164e+00  9.15090731e+00  7.59143935e+00  9.05825085e+00  1.14789182e+01
  8.73316468e+00  1.35381216e+01  1.02074500e+01  8.63489292e+00  1.43716878e+01
  7.16951296e+00  1.07237699e+01  1.22204333e+01  8.14027099e+00
Force Field                                I                0
Int Atom Types                             I   N=          13
           0           0           0           0           0           0
           0           0           0           0           0           0
           0
MM Charges                                 R   N=          13
  0.00000000e+00  0.00000000e+00  0.00000000e+00  0.00000000e+00  0.00000000e+00
  0.00000000e+00  0.00000000e+00  0.00000000e+00  0.00000000e+00  0.00000000e+00
  0.00000000e+00  0.00000000e+00  0.00000000e+00
Integer atomic weights                     I   N=          13
          12           1          12          16          16          14
          12           1           1           1           1           1
           1
Real atomic weights                        R   N=          13
  1.20107002e+01  1.00794005e+00  1.20107002e+01  1.59994001e+01  1.59994001e+01
  1.40066996e+01  1.20107002e+01  1.00794005e+00  1.00794005e+00  1.00794005e+00
  1.00794005e+00  1.00794005e+00  1.00794005e+00
Atom residue num                           I   N=          13
           0           0           0           0           0           0
           0           0           0           0           0           0
           0
Number of contracted shells                I               25
Number of primitive shells                 I               75
Pure/Cartesian d shells                    I                1
Pure/Cartesian f shells                    I                1
Highest angular momentum                   I                1
Largest degree of contraction              I                3
Shell types                                I   N=          25
           0           0           1           0           0           0
           1           0           0           1           0           0
           1           0           0           1           0           0
           1           0           0           0           0           0
           0
Number of primitives per shell             I   N=          25
           3           3           3           3           3           3
           3           3           3           3           3           3
           3           3           3           3           3           3
           3           3           3           3           3           3
           3
Shell to atom map                          I   N=          25
           1           1           1           2           3           3
           3           4           4           4           5           5
           5           6           6           6           7           7
           7           8           9          10          11          12
          13
Primitive exponents                        R   N=          75
  7.16168373e+01  1.30450963e+01  3.53051216e+00  2.94124936e+00  6.83483096e-01
  2.22289916e-01  2.94124936e+00  6.83483096e-01  2.22289916e-01  3.42525091e+00
  6.23913730e-01  1.68855404e-01  7.16168373e+01  1.30450963e+01  3.53051216e+00
  2.94124936e+00  6.83483096e-01  2.22289916e-01  2.94124936e+00  6.83483096e-01
  2.22289916e-01  1.30709321e+02  2.38088660e+01  6.44360831e+00  5.03315132e+00
  1.16959612e+00  3.80388960e-01  5.03315132e+00  1.16959612e+00  3.80388960e-01
  1.30709321e+02  2.38088660e+01  6.44360831e+00  5.03315132e+00  1.16959612e+00
  3.80388960e-01  5.03315132e+00  1.16959612e+00  3.80388960e-01  9.91061690e+01
  1.80523124e+01  4.88566024e+00  3.78045588e+00  8.78496645e-01  2.85714374e-01
  3.78045588e+00  8.78496645e-01  2.85714374e-01  7.16168373e+01  1.30450963e+01
  3.53051216e+00  2.94124936e+00  6.83483096e-01  2.22289916e-01  2.94124936e+00
  6.83483096e-01  2.22289916e-01  3.42525091e+00  6.23913730e-01  1.68855404e-01
  3.42525091e+00  6.23913730e-01  1.68855404e-01  3.42525091e+00  6.23913730e-01
  1.68855404e-01  3.42525091e+00  6.23913730e-01  1.68855404e-01  3.42525091e+00
  6.23913730e-01  1.68855404e-01  3.42525091e+00  6.23913730e-01  1.68855404e-01
Contraction coefficients                   R   N=          75
  1.54328967e-01  5.35328142e-01  4.44634542e-01 -9.99672292e-02  3.99512826e-01
  7.00115469e-01  1.55916275e-01  6.07683719e-01  3.91957393e-01  1.54328967e-01
  5.35328142e-01  4.44634542e-01  1.54328967e-01  5.35328142e-01  4.44634542e-01
 -9.99672292e-02  3.99512826e-01  7.00115469e-01  1.55916275e-01  6.07683719e-01
  3.91957393e-01  1.54328967e-01  5.35328142e-01  4.44634542e-01 -9.99672292e-02
  3.99512826e-01  7.00115469e-01  1.55916275e-01  6.07683719e-01  3.91957393e-01
  1.54328967e-01  5.35328142e-01  4.44634542e-01 -9.99672292e-02  3.99512826e-01
  7.00115469e-01  1.55916275e-01  6.07683719e-01  3.91957393e-01  1.54328967e-01
  5.35328142e-01  4.44634542e-01 -9.99672292e-02  3.99512826e-01  7.00115469e-01
  1.55916275e-01  6.07683719e-01  3.91957393e-01  1.54328967e-01  5.35328142e-01
  4.44634542e-01 -9.99672292e-02  3.99512826e-01  7.00115469e-01  1.55916275e-01
  6.07683719e-01  3.91957393e-01  1.54328967e-01  5.35328142e-01  4.44634542e-01
  1.54328967e-01  5.35328142e-01  4.44634542e-01  1.54328967e-01  5.35328142e-01
  4.44634542e-01  1.54328967e-01  5.35328142e-01  4.44634542e-01  1.54328967e-01
  5.35328142e-01  4.44634542e-01  1.54328967e-01  5.35328142e-01  4.44634542e-01
P(S=P) Contraction coefficients            R   N=          75
  0.00000000e+00  0.00000000e+00  0.00000000e+00  0.00000000e+00  0.00000000e+00
  0.00000000e+00  0.00000000e+00  0.00000000e+00  0.00000000e+00  0.00000000e+00
  0.00000000e+00  0.00000000e+00  0.00000000e+00  0.00000000e+00  0.00000000e+00
  0.00000000e+00  0.00000000e+00  0.00000000e+00  0.00000000e+00  0.00000000e+00
  0.00000000e+00  0.00000000e+00  0.00000000e+00  0.00000000e+00  0.00000000e+00
  0.00000000e+00  0.00000000e+00  0.00000000e+00  0.00000000e+00  0.00000000e+00
  0.00000000e+00  0.00000000e+00  0.00000000e+00  0.00000000e+00  0.00000000e+00
  0.00000000e+00  0.00000000e+00  0.00000000e+00  0.00000000e+00  0.00000000e+00
  0.00000000e+00  0.00000000e+00  0.00000000e+00  0.00000000e+00  0.00000000e+00
  0.00000000e+00  0.00000000e+00  0.00000000e+00  0.00000000e+00  0.00000000e+00
  0.00000000e+00  0.00000000e+00  0.00000000e+00  0.00000000e+00  0.00000000e+00
  0.00000000e+00  0.00000000e+00  0.00000000e+00  0.00000000e+00  0.00000000e+00
  0.00000000e+00  0.00000000e+00  0.00000000e+00  0.00000000e+00  0.00000000e+00
  0.00000000e+00  0.00000000e+00  0.00000000e+00  0.00000000e+00  0.00000000e+00
  0.00000000e+00  0.00000000e+00  0.00000000e+00  0.00000000e+00  0.00000000e+00
Coordinates of each shell                  R   N=          75
  7.06703143e+00  1.08730911e+01  7.85439933e+00  7.06703143e+00  1.08730911e+01
  7.85439933e+00  7.06703143e+00  1.08730911e+01  7.85439933e+00  7.18948812e+00
  1.03804322e+01  5.86303540e+00  4.37703329e+00  1.18509953e+01  8.32551954e+00
  4.37703329e+00  1.18509953e+01  8.32551954e+00  4.37703329e+00  1.18509953e+01
  8.32551954e+00  4.10574631e+00  1.37819799e+01  9.64915404e+00  4.10574631e+00
  1.37819799e+01  9.64915404e+00  4.10574631e+00  1.37819799e+01  9.64915404e+00
  2.61569242e+00  1.05875601e+01  7.32207058e+00  2.61569242e+00  1.05875601e+01
  7.32207058e+00  2.61569242e+00  1.05875601e+01  7.32207058e+00  8.93704030e+00
  1.29010124e+01  8.40179835e+00  8.93704030e+00  1.29010124e+01  8.40179835e+00
  8.93704030e+00  1.29010124e+01  8.40179835e+00  7.62470729e+00  8.56278386e+00
  9.48732239e+00  7.62470729e+00  8.56278386e+00  9.48732239e+00  7.62470729e+00
  8.56278386e+00  9.48732239e+00  9.45958784e+00  7.76201665e+00  9.04889310e+00
  6.22438932e+00  7.11255164e+00  9.15090731e+00  7.59143935e+00  9.05825085e+00
  1.14789182e+01  8.73316468e+00  1.35381216e+01  1.02074500e+01  8.63489292e+00
  1.43716878e+01  7.16951296e+00  1.07237699e+01  1.22204333e+01  8.14027099e+00
Virial ratio                               R      2.022925222671163E+00
SCF Energy                                 R     -3.192218413344366E+02
Alpha Orbital Energies                     R   N=          37
 -1.84533620e+01 -1.84465606e+01 -1.42297122e+01 -9.90824342e+00 -9.87841384e+00
 -9.79549587e+00 -1.00324158e+00 -8.20602989e-01 -7.20042421e-01 -7.08518537e-01
 -6.09348891e-01 -5.85505023e-01 -5.71222159e-01 -4.51843793e-01 -3.98362288e-01
 -3.42991094e-01 -3.32446999e-01 -3.14162267e-01 -1.79686801e-01 -1.59994700e-01
 -1.26692397e-01  2.86020276e-02  3.80751144e-02  6.47815125e-02  1.90127903e-01
  2.28167346e-01  2.31034851e-01  2.46165418e-01  2.61506656e-01  3.78948953e-01
  4.11522579e-01  4.30724899e-01  4.58088546e-01  4.75995736e-01  4.94600606e-01
  6.99844420e-01  8.15694285e-01
Alpha MO coefficients                      R   N=        1369
  2.68260928e-05 -3.54388154e-04  4.46224781e-05 -4.68524949e-04 -2.73193385e-04
  7.75646649e-06 -7.16799689e-04  8.35882556e-03 -8.95179635e-04  6.21569281e-03
  4.25931934e-03 -9.93417678e-01 -2.94580693e-02 -7.77930260e-04  4.79576761e-03
  3.28398025e-03 -8.65996282e-03 -4.70228809e-04  3.31497941e-04 -5.30385764e-04
 -3.45697567e-04  9.46633238e-06 -1.15296883e-04 -7.20292584e-05 -1.17329243e-04
 -9.29959312e-05  9.53347177e-06 -4.23528967e-05  4.16356516e-05 -3.03957390e-05
  5.80983936e-06 -1.78881865e-05  3.47714419e-05 -2.25962929e-05  3.79654103e-04
  8.40845263e-05  9.03893402e-06 -2.64765386e-05  4.02232121e-04 -3.72223718e-04
 -1.79616013e-04 -2.52650736e-04 -1.67056100e-04  7.10543081e-04 -7.88012692e-03
  5.43043315e-03  3.99220998e-03  3.15941120e-03 -8.73378191e-03 -5.45183980e-05
 -6.85211203e-04 -1.04390189e-04 -1.20644011e-04  9.93464273e-01  2.90508572e-02
  4.16878310e-03  2.93713868e-03  2.33840291e-03  4.78049189e-06 -1.30121145e-05
  1.01390758e-04 -4.30379751e-05 -5.98467435e-06 -1.83178690e-05  1.02808595e-04
 -9.87534669e-05  3.57182922e-06  2.83969614e-05  2.35544470e-05 -1.22846324e-04
 -1.80613805e-05 -4.63616620e-05  3.98228653e-06 -1.96887247e-05 -5.64374232e-04
  5.80557594e-03  3.33012623e-03  3.59464439e-03  9.64455122e-04 -5.06533260e-04
  1.74985267e-05 -4.00805572e-04 -3.10138633e-04 -1.36354733e-04 -2.24824174e-05
  1.59532791e-05 -5.80548960e-05 -6.66966861e-05 -5.36048173e-05 -6.81865469e-05
 -9.76749754e-06  2.90510590e-05  5.03134164e-05 -3.66469505e-05 -2.06759983e-05
 -9.92047139e-01 -3.93596796e-02 -4.90778314e-04 -4.32504755e-04 -2.84882934e-05
  5.69767248e-06 -2.89485874e-04 -6.18516757e-05 -3.03105595e-04  8.68612139e-05
 -1.63337963e-04  8.64923304e-05 -1.20647845e-04  7.77501903e-03  7.67497033e-03
  7.80575460e-03  9.90155250e-01  4.49874719e-02  6.16958110e-04 -1.62635115e-04
 -3.89502774e-04 -9.56676593e-03 -3.65920915e-03 -7.69103757e-03 -5.26210927e-03
  1.76703713e-03  8.41357897e-04 -2.77927377e-05  3.91770382e-04  2.26125223e-04
 -1.75171762e-04 -1.25011990e-04 -2.27037435e-05  3.59501906e-04  2.68555664e-04
  1.74845987e-05 -1.13803002e-05  7.87357150e-04 -6.58538081e-03  3.59355564e-03
  3.96628001e-03  1.10352257e-03 -1.55671697e-02 -8.43223185e-03  9.91765741e-04
 -4.75769478e-03  3.35769399e-03  2.94149567e-04  2.68053999e-04  2.17020706e-04
 -4.43033258e-04 -3.91380426e-04 -4.07063397e-04  1.70778719e-02 -6.81405628e-03
 -1.19739955e-03  4.64815185e-03 -3.30224554e-03  9.07750704e-06 -6.21963347e-04
 -1.37738810e-04  2.61434731e-05  9.67448853e-05 -5.77334199e-05 -1.31200093e-05
  6.28115677e-05  2.76787870e-05 -6.96772101e-05  2.32607069e-05 -2.43468583e-05
  1.45530722e-04  9.45197166e-05 -2.69824885e-05  4.42659044e-05  1.40647074e-05
  2.32235089e-04 -3.82405516e-05  4.34055833e-05 -1.04542199e-04  9.90145816e-01
  4.63098954e-02  1.67251677e-04 -4.09835072e-04  2.24514535e-04 -9.42652177e-03
 -9.37372215e-03 -9.36318259e-03 -7.72985173e-07 -1.84097714e-04 -1.05780976e-04
 -5.20559432e-03  7.22336009e-03 -5.38067411e-03  2.10958360e-03  1.01028254e-03
  1.98529680e-04 -9.91018507e-01 -3.95406698e-02 -5.70230462e-04  6.04750537e-05
 -2.21824065e-05 -5.50572558e-04  7.60634033e-03  2.51704236e-04 -2.58274715e-03
 -1.77269992e-03 -5.77341126e-04  7.40483558e-03  2.27419927e-03  1.78775294e-03
  1.40413985e-03  1.30202589e-05 -4.73198736e-04 -9.66601794e-05  4.72918717e-05
  3.32103721e-05 -6.69565013e-04 -2.09963250e-04 -3.51809692e-04  2.00417490e-04
  4.27541603e-05  2.47769051e-04  2.73840222e-04  2.09099723e-04  2.98289466e-04
  3.58253954e-04  1.69406327e-04  6.06929460e-02 -1.29441741e-01 -4.54222393e-02
 -4.10451224e-02 -1.00422056e-02 -1.68591386e-02  1.33852044e-02 -2.70262720e-02
 -1.04304020e-02 -2.76247027e-04 -2.84574523e-04  9.09079903e-03 -2.93444795e-02
 -5.16936051e-03  7.56774226e-03  5.69494483e-03  3.47641389e-03 -1.12185562e-02
 -3.71236983e-03 -2.28514086e-03 -1.78409320e-03  2.27067206e-01 -7.74210853e-01
 -3.24698782e-02 -1.65188175e-02  1.25138041e-03  1.33375909e-02 -3.08622074e-02
 -1.69802691e-03 -1.35072577e-02  5.83178832e-03 -4.10585062e-03 -2.72503747e-03
 -4.13681186e-03 -1.04069152e-01 -1.06691220e-01 -1.16141071e-01 -5.01242674e-02
  1.35103058e-01 -4.53109034e-02  1.13293435e-02  9.60163651e-03  2.51961581e-02
 -1.60933548e-01  3.80392723e-01 -4.13855103e-02  4.12396528e-02  2.42334602e-02
 -1.48897776e-01  5.04690764e-01  2.77388606e-02 -1.21328900e-01 -8.37383623e-02
 -1.17576994e-01  3.98517013e-01  9.14482453e-02  6.42280542e-02  5.10992879e-02
  2.73874282e-02 -1.02232820e-01 -5.81589750e-02 -2.69767462e-02 -1.09362287e-03
 -2.09374364e-02  5.32470107e-02 -7.73726437e-03  1.32290494e-02 -7.39543953e-03
  8.28863501e-03  1.20118435e-02  1.12742722e-02 -1.33800489e-02 -1.94278768e-02
 -3.54682780e-02 -9.30791560e-02  2.59803857e-01  2.71853646e-02 -5.28226144e-02
  1.58508722e-03  7.08971220e-02 -3.55372433e-03  8.96498264e-03 -4.16520458e-02
 -1.91817990e-01 -1.31193964e-01  1.44145625e-01 -5.03927767e-01 -3.28070881e-02
  8.49800527e-02  5.96908631e-02 -1.17817022e-01  4.09013645e-01  8.06562748e-02
  3.41544243e-02  3.05602419e-02  1.68956493e-02 -6.62133233e-02 -3.72388539e-02
 -1.22743127e-01 -2.59691080e-02 -9.74124498e-02  2.65671462e-01  1.15571129e-03
  2.98070720e-02 -2.36286240e-02  6.47919416e-02  5.93055870e-02  5.80050199e-02
 -4.70118554e-02 -4.82737703e-02 -6.44639172e-03 -1.16746539e-01  3.29419316e-01
  6.17338540e-02 -3.51522657e-02  3.75803444e-02  7.07786248e-02  2.09363651e-02
 -5.60278569e-02  1.28157652e-01  1.01794964e-01  8.59386990e-02 -5.43155376e-02
  1.89319898e-01  2.58224419e-02 -2.95270581e-02 -1.74057630e-02  1.36363823e-01
 -4.77611620e-01 -8.09340696e-02 -5.41931529e-02 -4.13629852e-02  3.12125433e-02
 -1.23881586e-01 -1.23760508e-01 -1.67045802e-01 -7.08056489e-03 -1.30355422e-01
  3.58869901e-01  1.10018961e-02  4.07096105e-02 -2.28657701e-02  9.07857926e-02
  7.19699938e-02  8.53519248e-02 -4.22886579e-02 -7.26577203e-02 -4.96837259e-02
 -1.06202178e-01  3.25966721e-01  2.39853123e-02  1.34829826e-01 -1.14569381e-01
  1.30598710e-01 -1.01844195e-02  2.47158863e-02  8.03657981e-02 -1.37256044e-02
 -3.05186844e-02  2.57952258e-02 -9.54724806e-02  1.02062596e-02  1.40368478e-02
  2.92631972e-03  2.04720289e-02 -7.52330098e-02 -8.04764274e-04 -8.98195799e-03
 -1.22294959e-02  5.27631868e-03 -2.19686441e-02 -3.05603239e-01 -5.02371126e-02
 -3.52998393e-01  1.16840684e-01 -3.44060718e-01 -2.93924762e-02  4.91233236e-02
 -5.26419894e-02 -1.20269026e-01 -1.01198656e-01 -1.21693949e-01 -1.88843631e-01
  1.39361752e-01 -1.43762429e-01 -1.22361110e-02  3.64100002e-02 -7.35150474e-02
  5.40314315e-02  7.44356467e-02 -3.34815902e-02 -2.98305161e-03  5.84762265e-03
  4.61991467e-02 -3.19089300e-02 -1.78479509e-02  3.16907967e-02 -1.17459130e-01
  1.68847105e-02  1.91162336e-02  1.37539390e-02  3.97842840e-04 -7.50992460e-04
  5.41003412e-03 -5.24385439e-03 -2.37003512e-03 -6.04496761e-03  2.51990317e-02
 -4.43254040e-01  2.83396121e-01  3.73510631e-01 -3.03897401e-03  9.92630688e-03
 -2.48994463e-02  1.07974956e-02  1.95277032e-02 -1.95154595e-02  5.23563357e-03
  1.84191200e-02  3.07137567e-01  3.67707303e-02 -3.68749895e-01 -5.39705947e-02
  1.72975286e-01  6.58184885e-02  5.73048916e-02  3.69768317e-02  2.57234461e-02
 -5.85127817e-03  1.59226464e-02  2.48133382e-02 -1.14583416e-02 -4.51692740e-03
  8.68835479e-03 -3.31092052e-02  3.38287456e-03  2.01620609e-04  4.69797008e-03
  1.47009464e-03 -5.28775429e-03  1.87477800e-03 -1.28181482e-04 -1.67325717e-03
 -2.11827486e-03  9.05761482e-03  3.82429444e-02 -4.50672988e-01  3.85120577e-01
  9.81612258e-02 -2.97608727e-01  3.19802006e-03  9.98625379e-02 -3.49927670e-02
 -1.06871109e-01 -1.17962926e-01 -9.25081067e-02  1.36938214e-01 -3.81746911e-01
  1.01591653e-01 -6.92254895e-02  2.21292279e-01 -2.62796973e-01 -2.31397845e-01
 -1.76126897e-01  2.44246708e-01 -3.89741599e-02  1.14816599e-01  1.41478873e-01
 -5.47302313e-02 -2.55614984e-02  1.03118265e-02 -3.91505745e-02  1.99394862e-02
 -4.34312878e-03 -1.56197699e-04  4.82083068e-02 -1.93908711e-01  3.00635806e-02
 -2.62169777e-02 -1.58929550e-02  3.32081188e-02 -1.54001304e-01  3.50564478e-01
  3.19956641e-01  1.62253334e-01  2.02190452e-02 -6.73016327e-02 -1.52670749e-01
  1.20003189e-02 -1.64750219e-01 -9.78029507e-02  5.20707818e-02 -1.26871177e-01
  1.21612388e-01  1.37189875e-02  1.06808960e-01  7.15869515e-03 -2.48350608e-02
  2.40565889e-01 -1.10492930e-01 -2.82887087e-01  2.34259678e-01  6.12952823e-02
 -1.95177551e-01 -1.78510926e-01  8.89023500e-02 -2.56547988e-02 -4.11772359e-02
  1.71965243e-01 -4.38071115e-02  3.07899881e-02 -4.90998535e-03 -3.06371507e-02
  1.25233526e-01 -3.63481922e-02  2.16281692e-02 -1.06311714e-02 -1.12381834e-03
  2.12497227e-03 -9.69591273e-02  4.19145417e-02  1.11739796e-01  2.02520343e-03
 -9.39346641e-03  2.59427952e-01 -1.62200693e-01 -2.59574602e-01  2.79057189e-01
 -1.85164544e-02 -2.31463650e-01  1.18426164e-01 -1.89769152e-02 -1.05576104e-01
 -3.26702851e-02  1.17036107e-01  5.15083516e-02 -2.27708531e-01  1.19350091e-01
  1.28478194e-02  7.05782526e-03 -2.26924571e-02 -2.77526437e-02 -1.98063534e-02
  3.23893602e-02 -5.94230481e-03  2.57223116e-02 -1.17594765e-02 -3.27264045e-03
  1.46365624e-02 -3.83150771e-03  1.49013433e-02 -6.46072251e-03  3.13002621e-03
  8.34568081e-03  2.79304525e-02 -1.38147100e-01  1.08850960e-01  2.21090392e-01
 -1.37170689e-02  1.74637326e-04  5.11143624e-03  3.07419549e-01  4.78226101e-01
  4.19867625e-02  7.58942548e-02 -4.68108739e-01  1.37435840e-01  5.14206189e-03
  1.31711704e-01 -1.76995825e-02  1.18406551e-02 -4.85651808e-02 -2.15497545e-01
  2.92918900e-01 -2.72379123e-01  1.55855207e-01 -6.13136791e-02  2.02526924e-01
  1.66644392e-01  2.15667728e-02 -1.28988008e-01  3.28834429e-02 -1.41307483e-01
  5.08543478e-02 -8.25769195e-03 -5.11725214e-02  3.09182939e-02 -1.32084638e-01
  5.67825469e-02  2.00735700e-02 -3.78735735e-02  1.14087910e-02 -5.82809924e-02
  7.55873057e-02 -8.13416548e-03  6.43619702e-02  1.66123565e-02 -6.24327937e-02
  3.07213718e-01 -1.89233235e-01  3.23511674e-01  2.47781302e-01 -1.43147076e-01
  2.17674187e-01  4.38212916e-02 -8.56939979e-02  8.44852278e-02  8.39893748e-05
 -4.80965393e-03  1.80221615e-01 -7.72320276e-02 -3.06303653e-01  3.26319878e-01
  7.44718286e-02 -2.53787603e-01 -1.82875716e-01  6.65049832e-02 -1.40169003e-02
 -4.53886509e-02  1.98954990e-01 -6.31428307e-02  5.91257355e-02  2.14821307e-02
 -2.79598286e-02  1.19118354e-01 -5.63084360e-02  7.13648177e-03 -1.80594387e-02
  1.28564937e-03 -9.37811712e-03 -1.25405334e-02  8.77980801e-03  4.75667773e-02
  3.35621952e-04 -5.93112572e-03 -2.22275170e-01  8.63741825e-02  3.39685110e-01
 -3.23742081e-01  3.11188720e-02  3.55856002e-01  9.18687996e-02 -2.39905514e-02
 -6.47787160e-02 -1.70010481e-02  6.23945673e-02 -1.46711059e-01  7.23154985e-02
  5.01178567e-02 -4.25399897e-02  1.04415999e-01 -3.73787813e-01  3.12941440e-01
 -1.38617897e-01 -5.72005592e-02 -1.00847933e-01  4.89117772e-01  1.55282277e-01
  3.48661412e-01  2.61538133e-01 -9.26649652e-02  4.42586046e-01 -1.28293668e-01
 -2.92092973e-01 -2.03364719e-01  7.35438414e-03 -4.10860817e-02  2.21681471e-02
 -4.28152677e-03 -2.13381378e-02  5.10460177e-03 -2.21560390e-02  3.51501252e-02
 -2.55983376e-02  7.81447616e-03  5.64164813e-02 -1.30952931e-02 -1.83592115e-02
 -3.67984183e-03 -4.46486623e-03  5.62520478e-02  3.16275521e-03 -1.48675437e-02
 -1.50441326e-02  2.66509702e-02 -8.86389074e-02  1.22446649e-01 -4.42665842e-03
  1.35105077e-02 -4.86794972e-02 -3.88169689e-01  5.25493277e-01 -1.62689998e-03
  8.55068859e-03 -3.39936688e-02 -2.44365044e-01  3.57508797e-01  7.66022091e-03
 -3.71320309e-02  5.91434176e-03 -2.01851186e-01  3.14012225e-01 -6.74228573e-03
  3.54978502e-02 -2.95422384e-02 -1.69528364e-02 -2.20017603e-02  2.42491523e-02
 -1.03866365e-01  5.66758336e-02 -1.13385857e-01  8.25007015e-02  7.62568561e-02
 -1.34783391e-02  2.83329705e-02  2.68833392e-02 -3.24687984e-02 -1.93602360e-02
 -7.30923103e-03  2.83014532e-02  3.55783631e-02  1.85926918e-02 -1.33943505e-02
  8.12413439e-02  1.10001164e-02 -4.25622703e-02  1.78296312e-01  3.32033582e-01
  2.77609654e-01  7.70839801e-02 -3.92645615e-01  1.97451369e-01 -3.62121871e-01
 -2.07968191e-01 -9.26024031e-02  4.64801536e-01 -4.28393414e-01 -1.89314263e-01
 -1.41486152e-01  1.49237518e-02 -8.15839385e-02  5.97880964e-02  6.75930627e-02
  1.85161248e-02 -6.14486871e-04  1.28005754e-03 -1.16256882e-02  1.31294767e-03
 -6.97244037e-03 -1.66041664e-02  1.22375855e-02  4.43050518e-03  7.61649576e-03
 -2.07432663e-04  3.43983396e-02 -6.06739367e-02  2.88054753e-01 -3.46155820e-01
  1.73010369e-01  7.92697162e-02 -3.63212664e-02  2.70983243e-02 -1.19541665e-01
 -8.85607174e-02  4.20613402e-02  2.01389731e-02 -9.09448879e-03  3.47701360e-02
 -7.44116661e-01  5.88855395e-02  4.51975324e-02 -8.96560890e-03  3.84096573e-02
 -4.85854672e-01  1.66916013e-01  3.04150936e-02 -5.29816756e-03  3.70519172e-02
  2.45429730e-02  8.52439480e-02  5.63943445e-02  2.84058432e-03 -9.84209676e-03
 -5.71549349e-03 -3.03320107e-02  2.62173735e-02  8.59150440e-02 -3.91626457e-02
 -4.57216173e-02 -1.06773692e-01 -6.22274535e-02  5.59162029e-02  4.11439774e-03
 -1.98433444e-02  2.41480119e-02 -3.92484724e-03  1.18560248e-02  6.11746067e-04
 -1.48334889e-03  6.62057161e-03  6.81512653e-03  1.98553306e-02 -3.41938417e-02
  5.05978579e-05 -9.83391088e-05  1.24392730e-02 -3.94858824e-01  5.72775153e-01
  6.42946707e-04 -2.75447825e-03  6.85487884e-02  4.11112102e-01 -5.88295893e-01
 -1.04282677e-03  5.71437063e-03  5.68998152e-03  5.33970459e-03 -2.45177113e-02
 -3.50147531e-03  1.62191718e-02 -8.87547939e-03 -2.96780753e-03 -1.46399211e-02
 -1.45191386e-02  7.79111259e-04 -3.76578558e-04  1.64520970e-02 -1.15264664e-02
 -1.50902043e-02 -2.12182003e-02  1.00504504e-01 -1.16960544e-02  9.71023773e-02
  2.58938532e-02  1.68332075e-02  3.28687476e-03 -1.23744824e-02 -3.30594643e-02
  1.54561428e-02  1.06244831e-02  3.60934235e-03 -2.02748972e-02  4.86985795e-01
  2.31462659e-01  1.92385733e-01  5.50472858e-04 -3.08937770e-03 -4.09158653e-01
  5.83797522e-01  4.00170273e-01  2.98053340e-02 -1.87896442e-01  2.88294327e-02
  4.42619933e-02 -2.07444342e-02 -1.49596734e-03  8.88807749e-03 -1.68976413e-02
 -9.51869115e-03 -7.72315087e-03  2.90297213e-03  1.53811822e-03 -1.43686544e-02
  7.57765653e-02  2.58830710e-02  1.02547857e-01 -7.45802770e-03  2.21423843e-02
  1.19989101e-01  1.82913832e-01  8.33037450e-02  5.29539329e-02  3.88311430e-03
 -1.29642488e-02 -2.68671054e-02  4.43701352e-02 -2.77140572e-02  6.93752609e-03
 -3.65037180e-02 -1.24374477e-01 -3.05127599e-02  5.44176879e-02 -5.50152741e-04
  3.01900263e-03  6.63002408e-02 -7.03651906e-02  1.63763210e-02  1.86141496e-01
 -1.26577988e+00 -3.26122625e-01 -1.99021795e-01  1.07244338e-01  1.14041342e-02
 -6.14506651e-02 -8.16714468e-03  5.85741775e-02 -9.27302561e-03 -5.46007865e-04
  1.28056757e-01 -3.21203182e-02  4.89675576e-01  7.31248982e-01  8.15612002e-01
 -5.41877833e-02  3.02687983e-01  3.38574432e-01  4.54520931e-01 -1.08328150e-01
 -2.50796335e-01  1.40818462e-03 -3.83577464e-03  2.23604434e-02  2.27382918e-01
 -2.84061649e-01  2.45690933e-03 -1.62519325e-02 -6.60696747e-02 -1.44040871e-01
  2.64491225e-01 -4.17899482e-03  2.43585223e-02  8.17693490e-02 -2.08011224e-01
  2.59138355e-01  3.27271180e-02 -1.93637991e-01  1.09573906e-01  6.41366356e-01
 -3.54395461e-01 -3.49580189e-02  1.87172856e-01  4.75954506e-02  1.87847641e-01
 -1.18866546e-01 -1.45159457e-01  1.26652658e-01 -3.78951307e-02  2.67651659e-01
 -6.83042577e-01  1.84768203e-01 -6.27086625e-02  3.42325521e-01  3.80445890e-01
  2.72857596e-01  1.26226961e-01 -4.11632938e-02 -1.78239137e-02  9.31873132e-02
  9.60096798e-02  8.63574130e-02 -1.51361838e-01  2.85375082e-03 -1.92981434e-02
 -7.13275717e-02 -3.88479445e-02  1.69171495e-01 -1.25092410e-03  7.57978726e-03
 -6.69072223e-03 -8.37115800e-02  1.37901506e-01  3.17034833e-02 -1.82880578e-01
  7.87487953e-01 -1.90796430e-01  4.05382065e-01  5.98144931e-03 -2.51352798e-02
  1.67551783e-01 -6.67136605e-02  1.17792024e-01 -1.46961575e-01  1.92115883e-01
 -1.09548990e-01 -1.65135841e-01  6.60067494e-01 -7.10351248e-01 -8.79310748e-03
  4.02336789e-02  8.98579304e-02  1.60327764e-01  1.70750376e-01  2.48369113e-01
  2.24166105e-02 -1.16856781e-01 -7.23427759e-02  7.56833955e-02 -2.13974395e-02
 -5.56220842e-03  2.81619628e-02  9.29097974e-02 -3.43403743e-02  6.49180504e-02
 -4.82920124e-03  2.95685838e-02  1.17139797e-01 -2.43929862e-02  5.27215637e-02
 -2.67090163e-02  1.95457847e-01 -3.11222146e-01  4.68963871e-01  7.57916038e-01
 -4.01313428e-03  2.19631387e-02  1.28091846e-02  4.86177202e-02  1.03619281e-01
 -1.20805657e-02  8.10211170e-02 -1.10098872e-01 -1.06608193e+00  9.53447542e-03
  5.14364143e-01 -7.78566972e-02  4.20307162e-01  4.13442995e-01  3.00108885e-01
  2.89867832e-01  1.47957352e-01  3.83898447e-03 -2.09097398e-02 -3.61842033e-02
 -2.97547636e-01  4.95916834e-01  3.78083119e-03 -2.35877243e-02 -2.33305170e-02
  2.94449290e-01 -3.51063279e-01 -4.88898312e-03  3.01150004e-02  1.31453256e-01
  2.49353375e-01 -3.63701349e-01  5.03434163e-02 -3.18461666e-01  2.52386093e-01
  4.34957695e-01 -1.32274302e-01  3.60965454e-02 -1.97924171e-01  6.41871515e-02
 -1.26926561e-01  2.17643785e-01  3.41172443e-02  1.58032781e-01 -1.42202172e-01
  1.48726340e-01 -2.31792152e-01  2.82805470e-02 -8.36067251e-02  5.19069124e-01
  3.33944206e-01 -3.97687870e-01 -3.46019626e-01 -7.07358079e-01 -4.76020244e-02
  2.69695208e-01  1.97427947e-01 -1.47947863e-01  3.29307113e-02  2.49396486e-03
 -1.22776484e-02 -6.79315247e-02  5.87529424e-02 -2.59277389e-02  6.14196380e-03
 -3.76346831e-02 -1.25188604e-01  3.91090587e-02 -5.50414881e-02  1.41152759e-02
 -9.52761669e-02 -1.56636299e-01  1.43815557e-01  1.88877584e-01  2.95981829e-02
 -1.59184395e-01  3.84556745e-01 -5.89412985e-01 -3.01639981e-01 -5.79945518e-01
 -1.16369126e-01  5.72957533e-01 -1.70122287e-01  4.77792370e-02  2.30470963e-01
  1.27938729e-01 -7.55181587e-01 -7.06305483e-02  5.43486700e-01 -4.70977521e-01
  5.59125840e-02 -4.15176627e-02  2.37544517e-01  1.26603287e-01 -2.10236708e-01
  2.41442964e-01  7.98959444e-03 -5.09520533e-02 -5.52234173e-02  1.57988511e-01
 -7.43101920e-02  5.80930293e-03 -3.42403558e-02 -6.51550146e-02  8.82289917e-02
 -1.33494336e-01 -1.55638530e-02  1.10722531e-01  2.67929114e-02 -1.08509904e-01
  1.49697548e-01 -5.17627289e-02  2.96102911e-01  2.75292844e-01  6.81300880e-01
 -6.48767272e-01 -2.80248320e-01  4.01844072e-01  2.97835336e-01 -1.31277017e-01
  7.75418726e-02 -7.26720425e-02  6.36612820e-02 -3.82452733e-01 -2.24504883e-02
 -3.94901381e-01  2.68362009e-01  3.46220383e-01 -5.04613922e-02  2.84545129e-01
  1.82940373e-01 -3.43976399e-02 -1.20318719e-01  5.28836228e-03 -2.99130638e-02
 -7.09683997e-02  1.94301530e-02  5.63880870e-02  1.15072073e-02 -6.87694101e-02
 -1.49003538e-01 -1.62241592e-02  2.66460577e-02 -2.25590603e-02  1.51272204e-01
 -2.10870322e-01 -4.11249574e-02 -2.02735732e-01 -3.41790960e-02  2.26984865e-01
  8.29097748e-01  8.71454711e-02  4.75752375e-01 -6.68585755e-01  5.89498915e-01
 -5.40960829e-01  1.02908681e-01 -1.46250044e-01  7.20818031e-02 -3.47402327e-02
  2.31587469e-01 -2.25324552e-01  2.53922684e-01 -5.04813985e-01 -4.19923966e-01