fchk produced by OCC                                                    
SP         r2scan                                             def2-tzvpp
Number of atoms                            I               13
Charge                                     I                0
Multiplicity                               I                1
Number of electrons                        I               48
Number of alpha electrons                  I               24
Number of beta electrons                   I               24
Number of basis functions                  I              284
Number of independent functions            I              284
Number of point charges in /Mol/           I                0
Number of translation vectors              I                0
Atomic numbers                             I   N=          13
           6           1           6           8           8           7
           6           1           1           1           1           1
           1
Nuclear charges                            R   N=          13
  6.00000000e+00  1.00000000e+00  6.00000000e+00  8.00000000e+00  8.00000000e+00
  7.00000000e+00  6.00000000e+00  1.00000000e+00  1.00000000e+00  1.00000000e+00
  1.00000000e+00  1.00000000e+00  1.00000000e+00
Current cartesian coordinates              R   N=          39
  7.06703143e+00  1.08730911e+01  7.85439933e+00  7.18948812e+00  1.03804322e+01
  5.86303540e+00  4.37703329e+00  1.18509953e+01  8.32551954e+00  4.10574631e+00
  1.37819799e+01  9.64915404e+00  2.61569242e+00  1.05875601e+01  7.32207058e+00
  8.93704030e+00  1.29010124e+01  8.40179835e+00  7.62470729e+00  8.56278386e+00
  9.48732239e+00  9.45958784e+00  7.76201665e+00  9.04889310e+00  6.22438932e+00
  7.11255164e+00  9.15090731e+00  7.59143935e+00  9.05825085e+00  1.14789182e+01
  8.73316468e+00  1.35381216e+01  1.02074500e+01  8.63489292e+00  1.43716878e+01
  7.16951296e+00  1.07237699e+01  1.22204333e+01  8.14027099e+00
Force Field                                I                0
Int Atom Types                             I   N=          13
           0           0           0           0           0           0
           0           0           0           0           0           0
           0
MM Charges                                 R   N=          13
  0.00000000e+00  0.00000000e+00  0.00000000e+00  0.00000000e+00  0.00000000e+00
  0.00000000e+00  0.00000000e+00  0.00000000e+00  0.00000000e+00  0.00000000e+00
  0.00000000e+00  0.00000000e+00  0.00000000e+00
Integer atomic weights                     I   N=          13
          12           1          12          16          16          14
          12           1           1           1           1           1
           1
Real atomic weights                        R   N=          13
  1.20107002e+01  1.00794005e+00  1.20107002e+01  1.59994001e+01  1.59994001e+01
  1.40066996e+01  1.20107002e+01  1.00794005e+00  1.00794005e+00  1.00794005e+00
  1.00794005e+00  1.00794005e+00  1.00794005e+00
Atom residue num                           I   N=          13
           0           0           0           0           0           0
           0           0           0           0           0           0
           0
Number of contracted shells                I              108
Number of primitive shells                 I              176
Pure/Cartesian d shells                    I                0
Pure/Cartesian f shells                    I                0
Highest angular momentum                   I                1
Largest degree of contraction              I                6
Shell types                                I   N=         108
           0           0           0           0           0           1
           1           1          -2          -2          -3           0
           0           0           1           1          -2           0
           0           0           0           0           1           1
           1          -2          -2          -3           0           0
           0           0           0           1           1           1
          -2          -2          -3           0           0           0
           0           0           1           1           1          -2
          -2          -3           0           0           0           0
           0           1           1           1          -2          -2
          -3           0           0           0           0           0
           1           1           1          -2          -2          -3
           0           0           0           1           1          -2
           0           0           0           1           1          -2
           0           0           0           1           1          -2
           0           0           0           1           1          -2
           0           0           0           1           1          -2
           0           0           0           1           1          -2
Number of primitives per shell             I   N=         108
           6           2           1           1           1           4
           1           1           1           1           1           3
           1           1           1           1           1           6
           2           1           1           1           4           1
           1           1           1           1           6           2
           1           1           1           4           1           1
           1           1           1           6           2           1
           1           1           4           1           1           1
           1           1           6           2           1           1
           1           4           1           1           1           1
           1           6           2           1           1           1
           4           1           1           1           1           1
           3           1           1           1           1           1
           3           1           1           1           1           1
           3           1           1           1           1           1
           3           1           1           1           1           1
           3           1           1           1           1           1
           3           1           1           1           1           1
Shell to atom map                          I   N=         108
           1           1           1           1           1           1
           1           1           1           1           1           2
           2           2           2           2           2           3
           3           3           3           3           3           3
           3           3           3           3           4           4
           4           4           4           4           4           4
           4           4           4           5           5           5
           5           5           5           5           5           5
           5           5           6           6           6           6
           6           6           6           6           6           6
           6           7           7           7           7           7
           7           7           7           7           7           7
           8           8           8           8           8           8
           9           9           9           9           9           9
          10          10          10          10          10          10
          11          11          11          11          11          11
          12          12          12          12          12          12
          13          13          13          13          13          13
Primitive exponents                        R   N=         176
  1.35753497e+04  2.03523337e+03  4.63225624e+02  1.31200196e+02  4.28530159e+01
  1.55841858e+01  6.20671385e+00  2.57648965e+00  5.76963394e-01  2.29728314e-01
  9.51644400e-02  3.46972322e+01  7.95826228e+00  2.37808269e+00  8.14332082e-01
  2.88875473e-01  1.00568237e-01  1.09700000e+00  3.18000000e-01  7.61000000e-01
  3.40613410e+01  5.12357460e+00  1.16466260e+00  3.27230410e-01  1.03072410e-01
  1.40700000e+00  3.88000000e-01  1.05700000e+00  1.35753497e+04  2.03523337e+03
  4.63225624e+02  1.31200196e+02  4.28530159e+01  1.55841858e+01  6.20671385e+00
  2.57648965e+00  5.76963394e-01  2.29728314e-01  9.51644400e-02  3.46972322e+01
  7.95826228e+00  2.37808269e+00  8.14332082e-01  2.88875473e-01  1.00568237e-01
  1.09700000e+00  3.18000000e-01  7.61000000e-01  2.70323826e+04  4.05238714e+03
  9.22327227e+02  2.61240710e+02  8.53546414e+01  3.10350352e+01  1.22608607e+01
  4.99870760e+00  1.17031082e+00  4.64747410e-01  1.85045364e-01  6.32749548e+01
  1.46270494e+01  4.45012235e+00  1.52757996e+00  5.29351179e-01  1.74784213e-01
  2.31400000e+00  6.45000000e-01  1.42800000e+00  2.70323826e+04  4.05238714e+03
  9.22327227e+02  2.61240710e+02  8.53546414e+01  3.10350352e+01  1.22608607e+01
  4.99870760e+00  1.17031082e+00  4.64747410e-01  1.85045364e-01  6.32749548e+01
  1.46270494e+01  4.45012235e+00  1.52757996e+00  5.29351179e-01  1.74784213e-01
  2.31400000e+00  6.45000000e-01  1.42800000e+00  1.97308006e+04  2.95789587e+03
  6.73221336e+02  1.90682495e+02  6.22954419e+01  2.26541612e+01  8.97914774e+00
  3.68630024e+00  8.46600768e-01  3.36471338e-01  1.36476537e-01  4.92003805e+01
  1.13467905e+01  3.42739724e+00  1.17855251e+00  4.16422050e-01  1.42608260e-01
  1.65400000e+00  4.69000000e-01  1.09300000e+00  1.35753497e+04  2.03523337e+03
  4.63225624e+02  1.31200196e+02  4.28530159e+01  1.55841858e+01  6.20671385e+00
  2.57648965e+00  5.76963394e-01  2.29728314e-01  9.51644400e-02  3.46972322e+01
  7.95826228e+00  2.37808269e+00  8.14332082e-01  2.88875473e-01  1.00568237e-01
  1.09700000e+00  3.18000000e-01  7.61000000e-01  3.40613410e+01  5.12357460e+00
  1.16466260e+00  3.27230410e-01  1.03072410e-01  1.40700000e+00  3.88000000e-01
  1.05700000e+00  3.40613410e+01  5.12357460e+00  1.16466260e+00  3.27230410e-01
  1.03072410e-01  1.40700000e+00  3.88000000e-01  1.05700000e+00  3.40613410e+01
  5.12357460e+00  1.16466260e+00  3.27230410e-01  1.03072410e-01  1.40700000e+00
  3.88000000e-01  1.05700000e+00  3.40613410e+01  5.12357460e+00  1.16466260e+00
  3.27230410e-01  1.03072410e-01  1.40700000e+00  3.88000000e-01  1.05700000e+00
  3.40613410e+01  5.12357460e+00  1.16466260e+00  3.27230410e-01  1.03072410e-01
  1.40700000e+00  3.88000000e-01  1.05700000e+00  3.40613410e+01  5.12357460e+00
  1.16466260e+00  3.27230410e-01  1.03072410e-01  1.40700000e+00  3.88000000e-01
  1.05700000e+00
Contraction coefficients                   R   N=         176
  6.06455036e-04  4.69790889e-03  2.43324776e-02  9.73999683e-02  3.01955843e-01
  6.62336091e-01  6.55953085e-01  3.75856333e-01  1.00000000e+00  1.00000000e+00
  1.00000000e+00  1.13272200e-02  7.61696592e-02  3.01922522e-01  7.27850273e-01
  1.00000000e+00  1.00000000e+00  1.00000000e+00  1.00000000e+00  1.00000000e+00
  2.54393072e-02  1.90085949e-01  8.52441130e-01  1.00000000e+00  1.00000000e+00
  1.00000000e+00  1.00000000e+00  1.00000000e+00  6.06455036e-04  4.69790889e-03
  2.43324776e-02  9.73999683e-02  3.01955843e-01  6.62336091e-01  6.55953085e-01
  3.75856333e-01  1.00000000e+00  1.00000000e+00  1.00000000e+00  1.13272200e-02
  7.61696592e-02  3.01922522e-01  7.27850273e-01  1.00000000e+00  1.00000000e+00
  1.00000000e+00  1.00000000e+00  1.00000000e+00  5.72273352e-04  4.43532335e-03
  2.30201077e-02  9.28224907e-02  2.93785000e-01  6.74016045e-01  6.38399370e-01
  3.95345871e-01  1.00000000e+00  1.00000000e+00  1.00000000e+00  1.20183322e-02
  8.30054218e-02  3.19917439e-01  7.07155429e-01  1.00000000e+00  1.00000000e+00
  1.00000000e+00  1.00000000e+00  1.00000000e+00  5.72273352e-04  4.43532335e-03
  2.30201077e-02  9.28224907e-02  2.93785000e-01  6.74016045e-01  6.38399370e-01
  3.95345871e-01  1.00000000e+00  1.00000000e+00  1.00000000e+00  1.20183322e-02
  8.30054218e-02  3.19917439e-01  7.07155429e-01  1.00000000e+00  1.00000000e+00
  1.00000000e+00  1.00000000e+00  1.00000000e+00  5.86264026e-04  4.54288206e-03
  2.35584135e-02  9.47091933e-02  2.97197849e-01  6.69162469e-01  6.45966836e-01
  3.87005744e-01  1.00000000e+00  1.00000000e+00  1.00000000e+00  1.14488251e-02
  7.84223380e-02  3.08180947e-01  7.20271964e-01  1.00000000e+00  1.00000000e+00
  1.00000000e+00  1.00000000e+00  1.00000000e+00  6.06455036e-04  4.69790889e-03
  2.43324776e-02  9.73999683e-02  3.01955843e-01  6.62336091e-01  6.55953085e-01
  3.75856333e-01  1.00000000e+00  1.00000000e+00  1.00000000e+00  1.13272200e-02
  7.61696592e-02  3.01922522e-01  7.27850273e-01  1.00000000e+00  1.00000000e+00
  1.00000000e+00  1.00000000e+00  1.00000000e+00  2.54393072e-02  1.90085949e-01
  8.52441130e-01  1.00000000e+00  1.00000000e+00  1.00000000e+00  1.00000000e+00
  1.00000000e+00  2.54393072e-02  1.90085949e-01  8.52441130e-01  1.00000000e+00
  1.00000000e+00  1.00000000e+00  1.00000000e+00  1.00000000e+00  2.54393072e-02
  1.90085949e-01  8.52441130e-01  1.00000000e+00  1.00000000e+00  1.00000000e+00
  1.00000000e+00  1.00000000e+00  2.54393072e-02  1.90085949e-01  8.52441130e-01
  1.00000000e+00  1.00000000e+00  1.00000000e+00  1.00000000e+00  1.00000000e+00
  2.54393072e-02  1.90085949e-01  8.52441130e-01  1.00000000e+00  1.00000000e+00
  1.00000000e+00  1.00000000e+00  1.00000000e+00  2.54393072e-02  1.90085949e-01
  8.52441130e-01  1.00000000e+00  1.00000000e+00  1.00000000e+00  1.00000000e+00
  1.00000000e+00
P(S=P) Contraction coefficients            R   N=         176
  0.00000000e+00  0.00000000e+00  0.00000000e+00  0.00000000e+00  0.00000000e+00
  0.00000000e+00  0.00000000e+00  0.00000000e+00  0.00000000e+00  0.00000000e+00
  0.00000000e+00  0.00000000e+00  0.00000000e+00  0.00000000e+00  0.00000000e+00
  0.00000000e+00  0.00000000e+00  0.00000000e+00  0.00000000e+00  0.00000000e+00
  0.00000000e+00  0.00000000e+00  0.00000000e+00  0.00000000e+00  0.00000000e+00
  0.00000000e+00  0.00000000e+00  0.00000000e+00  0.00000000e+00  0.00000000e+00
  0.00000000e+00  0.00000000e+00  0.00000000e+00  0.00000000e+00  0.00000000e+00
  0.00000000e+00  0.00000000e+00  0.00000000e+00  0.00000000e+00  0.00000000e+00
  0.00000000e+00  0.00000000e+00  0.00000000e+00  0.00000000e+00  0.00000000e+00
  0.00000000e+00  0.00000000e+00  0.00000000e+00  0.00000000e+00  0.00000000e+00
  0.00000000e+00  0.00000000e+00  0.00000000e+00  0.00000000e+00  0.00000000e+00
  0.00000000e+00  0.00000000e+00  0.00000000e+00  0.00000000e+00  0.00000000e+00
  0.00000000e+00  0.00000000e+00  0.00000000e+00  0.00000000e+00  0.00000000e+00
  0.00000000e+00  0.00000000e+00  0.00000000e+00  0.00000000e+00  0.00000000e+00
  0.00000000e+00  0.00000000e+00  0.00000000e+00  0.00000000e+00  0.00000000e+00
  0.00000000e+00  0.00000000e+00  0.00000000e+00  0.00000000e+00  0.00000000e+00
  0.00000000e+00  0.00000000e+00  0.00000000e+00  0.00000000e+00  0.00000000e+00
  0.00000000e+00  0.00000000e+00  0.00000000e+00  0.00000000e+00  0.00000000e+00
  0.00000000e+00  0.00000000e+00  0.00000000e+00  0.00000000e+00  0.00000000e+00
  0.00000000e+00  0.00000000e+00  0.00000000e+00  0.00000000e+00  0.00000000e+00
  0.00000000e+00  0.00000000e+00  0.00000000e+00  0.00000000e+00  0.00000000e+00
  0.00000000e+00  0.00000000e+00  0.00000000e+00  0.00000000e+00  0.00000000e+00
  0.00000000e+00  0.00000000e+00  0.00000000e+00  0.00000000e+00  0.00000000e+00
  0.00000000e+00  0.00000000e+00  0.00000000e+00  0.00000000e+00  0.00000000e+00
  0.00000000e+00  0.00000000e+00  0.00000000e+00  0.00000000e+00  0.00000000e+00
  0.00000000e+00  0.00000000e+00  0.00000000e+00  0.00000000e+00  0.00000000e+00
  0.00000000e+00  0.00000000e+00  0.00000000e+00  0.00000000e+00  0.00000000e+00
  0.00000000e+00  0.00000000e+00  0.00000000e+00  0.00000000e+00  0.00000000e+00
  0.00000000e+00  0.00000000e+00  0.00000000e+00  0.00000000e+00  0.00000000e+00
  0.00000000e+00  0.00000000e+00  0.00000000e+00  0.00000000e+00  0.00000000e+00
  0.00000000e+00  0.00000000e+00  0.00000000e+00  0.00000000e+00  0.00000000e+00
  0.00000000e+00  0.00000000e+00  0.00000000e+00  0.00000000e+00  0.00000000e+00
  0.00000000e+00  0.00000000e+00  0.00000000e+00  0.00000000e+00  0.00000000e+00
  0.00000000e+00  0.00000000e+00  0.00000000e+00  0.00000000e+00  0.00000000e+00
  0.00000000e+00  0.00000000e+00  0.00000000e+00  0.00000000e+00  0.00000000e+00
  0.00000000e+00
Coordinates of each shell                  R   N=         324
  7.06703143e+00  1.08730911e+01  7.85439933e+00  7.06703143e+00  1.08730911e+01
  7.85439933e+00  7.06703143e+00  1.08730911e+01  7.85439933e+00  7.06703143e+00
  1.08730911e+01  7.85439933e+00  7.06703143e+00  1.08730911e+01  7.85439933e+00
  7.06703143e+00  1.08730911e+01  7.85439933e+00  7.06703143e+00  1.08730911e+01
  7.85439933e+00  7.06703143e+00  1.08730911e+01  7.85439933e+00  7.06703143e+00
  1.08730911e+01  7.85439933e+00  7.06703143e+00  1.08730911e+01  7.85439933e+00
  7.06703143e+00  1.08730911e+01  7.85439933e+00  7.18948812e+00  1.03804322e+01
  5.86303540e+00  7.18948812e+00  1.03804322e+01  5.86303540e+00  7.18948812e+00
  1.03804322e+01  5.86303540e+00  7.18948812e+00  1.03804322e+01  5.86303540e+00
  7.18948812e+00  1.03804322e+01  5.86303540e+00  7.18948812e+00  1.03804322e+01
  5.86303540e+00  4.37703329e+00  1.18509953e+01  8.32551954e+00  4.37703329e+00
  1.18509953e+01  8.32551954e+00  4.37703329e+00  1.18509953e+01  8.32551954e+00
  4.37703329e+00  1.18509953e+01  8.32551954e+00  4.37703329e+00  1.18509953e+01
  8.32551954e+00  4.37703329e+00  1.18509953e+01  8.32551954e+00  4.37703329e+00
  1.18509953e+01  8.32551954e+00  4.37703329e+00  1.18509953e+01  8.32551954e+00
  4.37703329e+00  1.18509953e+01  8.32551954e+00  4.37703329e+00  1.18509953e+01
  8.32551954e+00  4.37703329e+00  1.18509953e+01  8.32551954e+00  4.10574631e+00
  1.37819799e+01  9.64915404e+00  4.10574631e+00  1.37819799e+01  9.64915404e+00
  4.10574631e+00  1.37819799e+01  9.64915404e+00  4.10574631e+00  1.37819799e+01
  9.64915404e+00  4.10574631e+00  1.37819799e+01  9.64915404e+00  4.10574631e+00
  1.37819799e+01  9.64915404e+00  4.10574631e+00  1.37819799e+01  9.64915404e+00
  4.10574631e+00  1.37819799e+01  9.64915404e+00  4.10574631e+00  1.37819799e+01
  9.64915404e+00  4.10574631e+00  1.37819799e+01  9.64915404e+00  4.10574631e+00
  1.37819799e+01  9.64915404e+00  2.61569242e+00  1.05875601e+01  7.32207058e+00
  2.61569242e+00  1.05875601e+01  7.32207058e+00  2.61569242e+00  1.05875601e+01
  7.32207058e+00  2.61569242e+00  1.05875601e+01  7.32207058e+00  2.61569242e+00
  1.05875601e+01  7.32207058e+00  2.61569242e+00  1.05875601e+01  7.32207058e+00
  2.61569242e+00  1.05875601e+01  7.32207058e+00  2.61569242e+00  1.05875601e+01
  7.32207058e+00  2.61569242e+00  1.05875601e+01  7.32207058e+00  2.61569242e+00
  1.05875601e+01  7.32207058e+00  2.61569242e+00  1.05875601e+01  7.32207058e+00
  8.93704030e+00  1.29010124e+01  8.40179835e+00  8.93704030e+00  1.29010124e+01
  8.40179835e+00  8.93704030e+00  1.29010124e+01  8.40179835e+00  8.93704030e+00
  1.29010124e+01  8.40179835e+00  8.93704030e+00  1.29010124e+01  8.40179835e+00
  8.93704030e+00  1.29010124e+01  8.40179835e+00  8.93704030e+00  1.29010124e+01
  8.40179835e+00  8.93704030e+00  1.29010124e+01  8.40179835e+00  8.93704030e+00
  1.29010124e+01  8.40179835e+00  8.93704030e+00  1.29010124e+01  8.40179835e+00
  8.93704030e+00  1.29010124e+01  8.40179835e+00  7.62470729e+00  8.56278386e+00
  9.48732239e+00  7.62470729e+00  8.56278386e+00  9.48732239e+00  7.62470729e+00
  8.56278386e+00  9.48732239e+00  7.62470729e+00  8.56278386e+00  9.48732239e+00
  7.62470729e+00  8.56278386e+00  9.48732239e+00  7.62470729e+00  8.56278386e+00
  9.48732239e+00  7.62470729e+00  8.56278386e+00  9.48732239e+00  7.62470729e+00
  8.56278386e+00  9.48732239e+00  7.62470729e+00  8.56278386e+00  9.48732239e+00
  7.62470729e+00  8.56278386e+00  9.48732239e+00  7.62470729e+00  8.56278386e+00
  9.48732239e+00  9.45958784e+00  7.76201665e+00  9.04889310e+00  9.45958784e+00
  7.76201665e+00  9.04889310e+00  9.45958784e+00  7.76201665e+00  9.04889310e+00
  9.45958784e+00  7.76201665e+00  9.04889310e+00  9.45958784e+00  7.76201665e+00
  9.04889310e+00  9.45958784e+00  7.76201665e+00  9.04889310e+00  6.22438932e+00
  7.11255164e+00  9.15090731e+00  6.22438932e+00  7.11255164e+00  9.15090731e+00
  6.22438932e+00  7.11255164e+00  9.15090731e+00  6.22438932e+00  7.11255164e+00
  9.15090731e+00  6.22438932e+00  7.11255164e+00  9.15090731e+00  6.22438932e+00
  7.11255164e+00  9.15090731e+00  7.59143935e+00  9.05825085e+00  1.14789182e+01
  7.59143935e+00  9.05825085e+00  1.14789182e+01  7.59143935e+00  9.05825085e+00
  1.14789182e+01  7.59143935e+00  9.05825085e+00  1.14789182e+01  7.59143935e+00
  9.05825085e+00  1.14789182e+01  7.59143935e+00  9.05825085e+00  1.14789182e+01
  8.73316468e+00  1.35381216e+01  1.02074500e+01  8.73316468e+00  1.35381216e+01
  1.02074500e+01  8.73316468e+00  1.35381216e+01  1.02074500e+01  8.73316468e+00
  1.35381216e+01  1.02074500e+01  8.73316468e+00  1.35381216e+01  1.02074500e+01
  8.73316468e+00  1.35381216e+01  1.02074500e+01  8.63489292e+00  1.43716878e+01
  7.16951296e+00  8.63489292e+00  1.43716878e+01  7.16951296e+00  8.63489292e+00
  1.43716878e+01  7.16951296e+00  8.63489292e+00  1.43716878e+01  7.16951296e+00
  8.63489292e+00  1.43716878e+01  7.16951296e+00  8.63489292e+00  1.43716878e+01
  7.16951296e+00  1.07237699e+01  1.22204333e+01  8.14027099e+00  1.07237699e+01
  1.22204333e+01  8.14027099e+00  1.07237699e+01  1.22204333e+01  8.14027099e+00
  1.07237699e+01  1.22204333e+01  8.14027099e+00  1.07237699e+01  1.22204333e+01
  8.14027099e+00  1.07237699e+01  1.22204333e+01  8.14027099e+00
Virial ratio                               R      2.008407756718484E+00
SCF Energy                                 R     -3.236686463098995E+02
Alpha Orbital Energies                     R   N=         284
 -1.88687223e+01 -1.88526566e+01 -1.43241300e+01 -1.01083401e+01 -1.00894469e+01
 -1.00569988e+01 -1.01627125e+00 -9.56035211e-01 -8.65747107e-01 -7.64066603e-01
 -6.50710487e-01 -6.00652991e-01 -5.88483812e-01 -5.11260635e-01 -4.63401476e-01
 -4.09957667e-01 -3.90406268e-01 -3.79998210e-01 -3.56515658e-01 -3.27231663e-01
 -3.13472294e-01 -1.89715371e-01 -1.88539862e-01 -1.65767483e-01 -3.86120819e-02
  1.57211385e-02  3.04309304e-02  3.24902035e-02  6.62634403e-02  8.30994735e-02
  9.38457009e-02  1.16594911e-01  1.26018479e-01  1.40957377e-01  1.68873374e-01
  1.87033364e-01  1.97209224e-01  2.20492683e-01  2.27398508e-01  2.65649440e-01
  2.72049042e-01  2.96929827e-01  3.17571067e-01  3.35275692e-01  3.54520252e-01
  3.68798502e-01  3.78804969e-01  3.91264866e-01  3.95100107e-01  4.14721718e-01
  4.31403304e-01  4.33782350e-01  4.42129302e-01  4.56128526e-01  4.67031257e-01
  4.75708546e-01  5.11401525e-01  5.25981810e-01  5.47840641e-01  5.58755208e-01
  5.61589229e-01  5.90831879e-01  6.14568134e-01  6.18164224e-01  6.60391154e-01
  6.86460745e-01  7.00752633e-01  7.52769604e-01  7.76511677e-01  7.82473203e-01
  8.39993508e-01  8.54334806e-01  8.68821833e-01  8.95622794e-01  9.09421697e-01
  9.25109064e-01  9.36570415e-01  9.70365401e-01  9.97271366e-01  1.02234598e+00
  1.02944117e+00  1.04553512e+00  1.06265868e+00  1.06821960e+00  1.10685785e+00
  1.13256447e+00  1.13987657e+00  1.16769081e+00  1.18455534e+00  1.19660263e+00
  1.21891134e+00  1.24675773e+00  1.25246568e+00  1.27639430e+00  1.29005590e+00
  1.34939153e+00  1.36066530e+00  1.43069154e+00  1.44119955e+00  1.45479995e+00
  1.46637224e+00  1.48286076e+00  1.50732623e+00  1.51293320e+00  1.53587503e+00
  1.55762822e+00  1.56414868e+00  1.57848307e+00  1.59117153e+00  1.61508243e+00
  1.63790228e+00  1.67821766e+00  1.73283272e+00  1.78389050e+00  1.80205398e+00
  1.84975479e+00  1.86189643e+00  1.91391200e+00  1.98030646e+00  1.99802390e+00
  2.05710171e+00  2.07862745e+00  2.15811102e+00  2.18188232e+00  2.20188116e+00
  2.21892980e+00  2.28359146e+00  2.30022035e+00  2.33829367e+00  2.34792341e+00
  2.41288558e+00  2.47663822e+00  2.50623190e+00  2.52695703e+00  2.56825296e+00
  2.62014002e+00  2.63034106e+00  2.68266773e+00  2.68625114e+00  2.70087287e+00
  2.75618315e+00  2.79916585e+00  2.80703595e+00  2.84060548e+00  2.85788790e+00
  2.88635961e+00  2.89831419e+00  2.93028982e+00  2.95849519e+00  2.99220675e+00
  3.02369439e+00  3.04212563e+00  3.04844086e+00  3.08062095e+00  3.09749718e+00
  3.12977926e+00  3.13474199e+00  3.14248623e+00  3.15111942e+00  3.17879024e+00
  3.20182725e+00  3.20269868e+00  3.22960656e+00  3.26915243e+00  3.29361375e+00
  3.31298692e+00  3.33176772e+00  3.33762747e+00  3.38530114e+00  3.38972747e+00
  3.40674319e+00  3.43581424e+00  3.44985195e+00  3.47094838e+00  3.49726665e+00
  3.50971424e+00  3.56580631e+00  3.57898300e+00  3.60863238e+00  3.62550128e+00
  3.66095855e+00  3.68019054e+00  3.70507408e+00  3.72003550e+00  3.73760717e+00
  3.77705706e+00  3.82919681e+00  3.85881173e+00  3.88249366e+00  3.88633628e+00
  3.92978491e+00  3.93979446e+00  4.00705178e+00  4.02794659e+00  4.04370112e+00
  4.07244611e+00  4.10088547e+00  4.11802059e+00  4.13376911e+00  4.15547321e+00
  4.18189513e+00  4.19267219e+00  4.21898718e+00  4.26556612e+00  4.27597635e+00
  4.31674185e+00  4.32917510e+00  4.35619835e+00  4.38350169e+00  4.43163637e+00
  4.44234802e+00  4.44815271e+00  4.48264021e+00  4.51603665e+00  4.52360903e+00
  4.55219682e+00  4.61620343e+00  4.63609294e+00  4.70868390e+00  4.71909490e+00
  4.78982292e+00  4.83016873e+00  4.87081293e+00  4.87752209e+00  4.93566307e+00
  4.96800112e+00  5.03154910e+00  5.04135121e+00  5.06388680e+00  5.11199706e+00
  5.16066554e+00  5.18284453e+00  5.30471071e+00  5.32648175e+00  5.34186345e+00
  5.35223492e+00  5.36515520e+00  5.38936267e+00  5.39575456e+00  5.46164583e+00
  5.50098554e+00  5.54961835e+00  5.55538091e+00  5.58553889e+00  5.58772426e+00
  5.64796032e+00  5.69898435e+00  5.71234010e+00  5.72718328e+00  5.75594367e+00
  5.77429149e+00  5.81257555e+00  5.84304692e+00  5.90008326e+00  5.95298023e+00
  5.97736442e+00  6.04986256e+00  6.08683626e+00  6.14308155e+00  6.17984027e+00
  6.26052990e+00  6.28783919e+00  6.36394661e+00  6.49303436e+00  6.54282742e+00
  6.54498220e+00  6.56917277e+00  6.60474401e+00  6.63236253e+00  6.68683705e+00
  6.75019981e+00  6.93139443e+00  6.96625966e+00  7.05748856e+00  7.11700976e+00
  7.30364126e+00  7.33238301e+00  7.47153147e+00  2.30250090e+01  2.35934979e+01
  2.37114870e+01  3.29379310e+01  4.39889116e+01  4.40074355e+01
Alpha MO coefficients                      R   N=       80656
  9.41385115e-06 -4.72858276e-05 -3.84254468e-05  3.87301830e-03 -1.64022184e-03
 -4.06791090e-05  1.05554381e-04  1.48379730e-05 -2.37764821e-03  2.38170277e-04
  1.57002553e-04  1.43222943e-03  2.77248080e-03 -8.61779610e-07 -8.88070320e-05
 -4.44606961e-05  1.29234026e-04  5.35043863e-05 -3.16411202e-05  5.90711000e-04
 -2.95878804e-04 -1.01793662e-03  6.24059321e-04 -1.28194176e-03  2.20627911e-05
  7.71237820e-05 -7.83441045e-06  6.45682248e-05  2.37049457e-05 -2.93344408e-05
  3.05736528e-05  2.56021886e-05 -6.85888443e-04 -1.75064380e-04 -4.24275006e-05
  1.88997676e-05 -2.15614043e-06  1.56647870e-04 -6.26975515e-04 -1.82769352e-04
  1.89704609e-05 -2.43341660e-05 -8.34452228e-05  2.57276233e-06  7.67226704e-05
  3.64843267e-05 -2.00370855e-04  2.24193829e-04  3.42827529e-03 -4.28332329e-03
  3.01243757e-05  3.31573996e-04  2.35519784e-04 -2.37786073e-03  5.55021331e-03
  3.79160874e-03 -1.30383269e-03 -4.66483704e-03 -3.55389780e-03 -5.02193074e-05
 -6.24020400e-05  3.19717323e-04 -1.78121858e-04 -1.36523890e-04  5.19894933e-04
  1.33135791e-04  2.93889257e-03 -3.15446305e-03  4.11097412e-04 -2.32683604e-04
  1.99460124e-05  2.12949482e-05 -7.03002959e-05 -4.67752938e-05  8.85581304e-06
  1.52668693e-04  4.35558694e-01  6.39096851e-01  3.55232776e-02 -2.77612251e-02
  1.24511309e-02  4.30795095e-04 -1.47075768e-03 -9.95917900e-04 -1.05434845e-03
  4.39784859e-03  2.97346269e-03  6.83513972e-04 -1.04414596e-03 -5.62652321e-04
 -2.99259713e-05 -1.63501059e-05  1.71429398e-04 -7.02807006e-05 -3.40189580e-05
 -9.45983064e-06  2.01179060e-04 -9.75884180e-04  7.55091649e-04  2.82446666e-04
 -6.43211031e-05 -1.25571846e-05  4.45652748e-05 -1.17291145e-04 -3.63771442e-05
  3.29360204e-05 -6.63321326e-05  1.40284687e-05  2.21652909e-05 -9.75343565e-05
  8.44848034e-04 -2.47125924e-03  1.08335213e-04  2.36957723e-05  3.70094289e-05
 -4.32424904e-04  2.15255618e-04  6.70951827e-05 -4.67126478e-04  3.84061571e-04
  3.43038866e-04 -4.22038107e-05  5.15338528e-06  3.94820585e-05  4.29924429e-05
 -6.05387639e-06  1.91192755e-04  1.24773254e-05 -6.12279297e-05 -2.68295579e-04
  7.80846119e-05  3.77435972e-05  3.25081925e-05 -1.61267013e-05  3.66525640e-05
 -1.31591764e-05 -3.20241540e-05  1.56674452e-05 -3.19219493e-06  1.97633204e-05
 -3.27130414e-04  1.78987180e-03 -3.41482894e-03  4.80041350e-05  5.84280474e-05
 -1.67647611e-06 -9.73450639e-04 -5.81550122e-04 -1.66679962e-04  6.78390637e-04
  2.72196677e-04  1.81696740e-04 -1.66868004e-05  1.57176751e-05  1.52381509e-06
  3.37375362e-05 -2.85465426e-05 -1.40719421e-05 -6.14779492e-05 -4.34539892e-05
 -1.62935070e-04  4.16362524e-04  3.17777597e-06  4.05907842e-05  1.32576157e-05
  2.80515297e-05 -6.69416991e-06 -2.75051624e-05 -7.21380611e-06 -2.73383620e-06
  1.33794242e-05 -2.43190035e-04  8.60440687e-04  3.92518024e-03  5.07971477e-05
 -4.28569094e-05  4.14988923e-05 -9.44789753e-04 -1.76913167e-03 -5.40037973e-04
 -1.35650228e-03  4.37326176e-04 -9.76827165e-04 -1.16178944e-05 -2.76140002e-05
  1.78281111e-05  3.71807417e-06  7.99015317e-05 -2.27501205e-04  3.52355498e-04
  5.30452469e-05  4.67379668e-04  4.75432623e-04  9.35380276e-06 -1.42398688e-05
  3.18127704e-05 -1.89765722e-05 -1.41908550e-05 -7.22517649e-06 -6.95187353e-05
  3.26409578e-05 -3.92673159e-04  1.73288259e-04  1.12857117e-06 -8.09546407e-07