Test
GAUSSIAN             91 MOL ORBITALS    1639 PRIMITIVES       45 NUCLEI
O     1    (CENTRE  1)  -5.98027431 15.41179559 17.55229723  CHARGE =  8.0
O     2    (CENTRE  2)  -8.12749644 13.00122001 21.63565041  CHARGE =  8.0
H     3    (CENTRE  3)  -8.45989398 14.83642848 22.19118008  CHARGE =  1.0
O     4    (CENTRE  4)  -6.03301460  8.57381048 16.97196176  CHARGE =  8.0
H     5    (CENTRE  5)  -5.07208144  7.57734255 16.86993795  CHARGE =  1.0
O     6    (CENTRE  6)  -0.75243159  9.65779487 16.18337768  CHARGE =  8.0
H     7    (CENTRE  7)   0.05074675  9.28943466 14.89767756  CHARGE =  1.0
O     8    (CENTRE  8)   0.27627011 14.80214708 14.58080359  CHARGE =  8.0
H     9    (CENTRE  9)   1.42764896 15.90821660 15.38879220  CHARGE =  1.0
O    10    (CENTRE 10)  -5.98495098 20.42693331 14.24832598  CHARGE =  8.0
O    11    (CENTRE 11) -10.56997443 18.05624282 16.53565992  CHARGE =  8.0
H    12    (CENTRE 12)  -8.95896691 17.43835359 16.97656284  CHARGE =  1.0
O    13    (CENTRE 13) -10.85827060 20.37518158  9.56463267  CHARGE =  8.0
H    14    (CENTRE 14) -12.23493793 19.66268888  9.77328137  CHARGE =  1.0
O    15    (CENTRE 15)  -6.30574971 16.74975898  8.51658803  CHARGE =  8.0
H    16    (CENTRE 16)  -6.87354889 15.44788995  9.20694918  CHARGE =  1.0
O    17    (CENTRE 17)  -0.66883856 18.09942419 10.59807391  CHARGE =  8.0
H    18    (CENTRE 18)  -0.34284916 16.87056794 11.52669067  CHARGE =  1.0
O    19    (CENTRE 19)  -4.69312689 16.26619350 13.42593401  CHARGE =  8.0
C    20    (CENTRE 20)  -6.96479588 12.88601474 17.18581168  CHARGE =  6.0
H    21    (CENTRE 21)  -7.75285889 12.68213931 15.49961807  CHARGE =  1.0
C    22    (CENTRE 22)  -9.05927479 12.57698772 19.14446889  CHARGE =  6.0
H    23    (CENTRE 23) -10.55028484 13.83913648 18.73417311  CHARGE =  1.0
H    24    (CENTRE 24)  -9.69357190 10.85747897 19.00263578  CHARGE =  1.0
C    25    (CENTRE 25)  -4.87888428 10.92686583 17.48388126  CHARGE =  6.0
H    26    (CENTRE 26)  -4.19171676 10.97021202 19.17447589  CHARGE =  1.0
C    27    (CENTRE 27)  -2.67613925 11.50866070 15.71246776  CHARGE =  6.0
H    28    (CENTRE 28)  -3.22665690 11.35093331 13.97006103  CHARGE =  1.0
C    29    (CENTRE 29)  -1.76242955 14.15442645 16.25739496  CHARGE =  6.0
H    30    (CENTRE 30)  -1.14550922 14.24293179 17.97299543  CHARGE =  1.0
C    31    (CENTRE 31)  -3.89537292 16.09050134 16.00213538  CHARGE =  6.0
H    32    (CENTRE 32)  -3.41125562 17.69579370 16.56726729  CHARGE =  1.0
C    33    (CENTRE 33)  -4.79596050 18.81356504 12.48631468  CHARGE =  6.0
C    34    (CENTRE 34)  -2.14257475 19.83640327 12.06421615  CHARGE =  6.0
H    35    (CENTRE 35)  -2.27761489 21.53415652 11.11839536  CHARGE =  1.0
H    36    (CENTRE 36)  -1.34520633 20.14065068 13.69539691  CHARGE =  1.0
C    37    (CENTRE 37)  -6.53539582 18.84487978 10.14396790  CHARGE =  6.0
H    38    (CENTRE 38)  -6.03756956 20.34469092  9.15633736  CHARGE =  1.0
C    39    (CENTRE 39)  -9.13820322 19.23301771 11.30803963  CHARGE =  6.0
H    40    (CENTRE 40)  -9.75908211 17.67502708 11.87377169  CHARGE =  1.0
C    41    (CENTRE 41)  -8.58041329 20.97461160 13.52155633  CHARGE =  6.0
H    42    (CENTRE 42)  -8.62672961 22.72708323 13.05924842  CHARGE =  1.0
C    43    (CENTRE 43) -10.29189560 20.63937908 15.78888560  CHARGE =  6.0
H    44    (CENTRE 44)  -9.65274999 21.71413386 17.25582802  CHARGE =  1.0
H    45    (CENTRE 45) -12.04135960 21.20123141 15.38979244  CHARGE =  1.0
CENTRE ASSIGNMENTS    1  1  1  1  1  1  1  1  1  1  1  1  1  1  1  1  1  1  1  1
CENTRE ASSIGNMENTS    1  1  1  1  1  1  1  1  1  1  1  1  1  1  1  1  1  1  1  1
CENTRE ASSIGNMENTS    1  1  1  1  1  1  1  1  1  1  1  1  1  1  1  2  2  2  2  2
CENTRE ASSIGNMENTS    2  2  2  2  2  2  2  2  2  2  2  2  2  2  2  2  2  2  2  2
CENTRE ASSIGNMENTS    2  2  2  2  2  2  2  2  2  2  2  2  2  2  2  2  2  2  2  2
CENTRE ASSIGNMENTS    2  2  2  2  2  2  2  2  2  2  3  3  3  3  3  3  3  3  3  3
CENTRE ASSIGNMENTS    3  3  3  3  3  3  3  4  4  4  4  4  4  4  4  4  4  4  4  4
CENTRE ASSIGNMENTS    4  4  4  4  4  4  4  4  4  4  4  4  4  4  4  4  4  4  4  4
CENTRE ASSIGNMENTS    4  4  4  4  4  4  4  4  4  4  4  4  4  4  4  4  4  4  4  4
CENTRE ASSIGNMENTS    4  4  5  5  5  5  5  5  5  5  5  5  5  5  5  5  5  5  5  6
CENTRE ASSIGNMENTS    6  6  6  6  6  6  6  6  6  6  6  6  6  6  6  6  6  6  6  6
CENTRE ASSIGNMENTS    6  6  6  6  6  6  6  6  6  6  6  6  6  6  6  6  6  6  6  6
CENTRE ASSIGNMENTS    6  6  6  6  6  6  6  6  6  6  6  6  6  6  7  7  7  7  7  7
CENTRE ASSIGNMENTS    7  7  7  7  7  7  7  7  7  7  7  8  8  8  8  8  8  8  8  8
CENTRE ASSIGNMENTS    8  8  8  8  8  8  8  8  8  8  8  8  8  8  8  8  8  8  8  8
CENTRE ASSIGNMENTS    8  8  8  8  8  8  8  8  8  8  8  8  8  8  8  8  8  8  8  8
CENTRE ASSIGNMENTS    8  8  8  8  8  8  9  9  9  9  9  9  9  9  9  9  9  9  9  9
CENTRE ASSIGNMENTS    9  9  9 10 10 10 10 10 10 10 10 10 10 10 10 10 10 10 10 10
CENTRE ASSIGNMENTS   10 10 10 10 10 10 10 10 10 10 10 10 10 10 10 10 10 10 10 10
CENTRE ASSIGNMENTS   10 10 10 10 10 10 10 10 10 10 10 10 10 10 10 10 10 10 11 11
CENTRE ASSIGNMENTS   11 11 11 11 11 11 11 11 11 11 11 11 11 11 11 11 11 11 11 11
CENTRE ASSIGNMENTS   11 11 11 11 11 11 11 11 11 11 11 11 11 11 11 11 11 11 11 11
CENTRE ASSIGNMENTS   11 11 11 11 11 11 11 11 11 11 11 11 11 12 12 12 12 12 12 12
CENTRE ASSIGNMENTS   12 12 12 12 12 12 12 12 12 12 13 13 13 13 13 13 13 13 13 13
CENTRE ASSIGNMENTS   13 13 13 13 13 13 13 13 13 13 13 13 13 13 13 13 13 13 13 13
CENTRE ASSIGNMENTS   13 13 13 13 13 13 13 13 13 13 13 13 13 13 13 13 13 13 13 13
CENTRE ASSIGNMENTS   13 13 13 13 13 14 14 14 14 14 14 14 14 14 14 14 14 14 14 14
CENTRE ASSIGNMENTS   14 14 15 15 15 15 15 15 15 15 15 15 15 15 15 15 15 15 15 15
CENTRE ASSIGNMENTS   15 15 15 15 15 15 15 15 15 15 15 15 15 15 15 15 15 15 15 15
CENTRE ASSIGNMENTS   15 15 15 15 15 15 15 15 15 15 15 15 15 15 15 15 15 16 16 16
CENTRE ASSIGNMENTS   16 16 16 16 16 16 16 16 16 16 16 16 16 16 17 17 17 17 17 17
CENTRE ASSIGNMENTS   17 17 17 17 17 17 17 17 17 17 17 17 17 17 17 17 17 17 17 17
CENTRE ASSIGNMENTS   17 17 17 17 17 17 17 17 17 17 17 17 17 17 17 17 17 17 17 17
CENTRE ASSIGNMENTS   17 17 17 17 17 17 17 17 17 18 18 18 18 18 18 18 18 18 18 18
CENTRE ASSIGNMENTS   18 18 18 18 18 18 19 19 19 19 19 19 19 19 19 19 19 19 19 19
CENTRE ASSIGNMENTS   19 19 19 19 19 19 19 19 19 19 19 19 19 19 19 19 19 19 19 19
CENTRE ASSIGNMENTS   19 19 19 19 19 19 19 19 19 19 19 19 19 19 19 19 19 19 19 19
CENTRE ASSIGNMENTS   19 20 20 20 20 20 20 20 20 20 20 20 20 20 20 20 20 20 20 20
CENTRE ASSIGNMENTS   20 20 20 20 20 20 20 20 20 20 20 20 20 20 20 20 20 20 20 20
CENTRE ASSIGNMENTS   20 20 20 20 20 20 20 20 20 20 20 20 20 20 20 20 21 21 21 21
CENTRE ASSIGNMENTS   21 21 21 21 21 21 21 21 21 21 21 21 21 22 22 22 22 22 22 22
CENTRE ASSIGNMENTS   22 22 22 22 22 22 22 22 22 22 22 22 22 22 22 22 22 22 22 22
CENTRE ASSIGNMENTS   22 22 22 22 22 22 22 22 22 22 22 22 22 22 22 22 22 22 22 22
CENTRE ASSIGNMENTS   22 22 22 22 22 22 22 22 23 23 23 23 23 23 23 23 23 23 23 23
CENTRE ASSIGNMENTS   23 23 23 23 23 24 24 24 24 24 24 24 24 24 24 24 24 24 24 24
CENTRE ASSIGNMENTS   24 24 25 25 25 25 25 25 25 25 25 25 25 25 25 25 25 25 25 25
CENTRE ASSIGNMENTS   25 25 25 25 25 25 25 25 25 25 25 25 25 25 25 25 25 25 25 25
CENTRE ASSIGNMENTS   25 25 25 25 25 25 25 25 25 25 25 25 25 25 25 25 25 26 26 26
CENTRE ASSIGNMENTS   26 26 26 26 26 26 26 26 26 26 26 26 26 26 27 27 27 27 27 27
CENTRE ASSIGNMENTS   27 27 27 27 27 27 27 27 27 27 27 27 27 27 27 27 27 27 27 27
CENTRE ASSIGNMENTS   27 27 27 27 27 27 27 27 27 27 27 27 27 27 27 27 27 27 27 27
CENTRE ASSIGNMENTS   27 27 27 27 27 27 27 27 27 28 28 28 28 28 28 28 28 28 28 28
CENTRE ASSIGNMENTS   28 28 28 28 28 28 29 29 29 29 29 29 29 29 29 29 29 29 29 29
CENTRE ASSIGNMENTS   29 29 29 29 29 29 29 29 29 29 29 29 29 29 29 29 29 29 29 29
CENTRE ASSIGNMENTS   29 29 29 29 29 29 29 29 29 29 29 29 29 29 29 29 29 29 29 29
CENTRE ASSIGNMENTS   29 30 30 30 30 30 30 30 30 30 30 30 30 30 30 30 30 30 31 31
CENTRE ASSIGNMENTS   31 31 31 31 31 31 31 31 31 31 31 31 31 31 31 31 31 31 31 31
CENTRE ASSIGNMENTS   31 31 31 31 31 31 31 31 31 31 31 31 31 31 31 31 31 31 31 31
CENTRE ASSIGNMENTS   31 31 31 31 31 31 31 31 31 31 31 31 31 32 32 32 32 32 32 32
CENTRE ASSIGNMENTS   32 32 32 32 32 32 32 32 32 32 33 33 33 33 33 33 33 33 33 33
CENTRE ASSIGNMENTS   33 33 33 33 33 33 33 33 33 33 33 33 33 33 33 33 33 33 33 33
CENTRE ASSIGNMENTS   33 33 33 33 33 33 33 33 33 33 33 33 33 33 33 33 33 33 33 33
CENTRE ASSIGNMENTS   33 33 33 33 33 34 34 34 34 34 34 34 34 34 34 34 34 34 34 34
CENTRE ASSIGNMENTS   34 34 34 34 34 34 34 34 34 34 34 34 34 34 34 34 34 34 34 34
CENTRE ASSIGNMENTS   34 34 34 34 34 34 34 34 34 34 34 34 34 34 34 34 34 34 34 34
CENTRE ASSIGNMENTS   35 35 35 35 35 35 35 35 35 35 35 35 35 35 35 35 35 36 36 36
CENTRE ASSIGNMENTS   36 36 36 36 36 36 36 36 36 36 36 36 36 36 37 37 37 37 37 37
CENTRE ASSIGNMENTS   37 37 37 37 37 37 37 37 37 37 37 37 37 37 37 37 37 37 37 37
CENTRE ASSIGNMENTS   37 37 37 37 37 37 37 37 37 37 37 37 37 37 37 37 37 37 37 37
CENTRE ASSIGNMENTS   37 37 37 37 37 37 37 37 37 38 38 38 38 38 38 38 38 38 38 38
CENTRE ASSIGNMENTS   38 38 38 38 38 38 39 39 39 39 39 39 39 39 39 39 39 39 39 39
CENTRE ASSIGNMENTS   39 39 39 39 39 39 39 39 39 39 39 39 39 39 39 39 39 39 39 39
CENTRE ASSIGNMENTS   39 39 39 39 39 39 39 39 39 39 39 39 39 39 39 39 39 39 39 39
CENTRE ASSIGNMENTS   39 40 40 40 40 40 40 40 40 40 40 40 40 40 40 40 40 40 41 41
CENTRE ASSIGNMENTS   41 41 41 41 41 41 41 41 41 41 41 41 41 41 41 41 41 41 41 41
CENTRE ASSIGNMENTS   41 41 41 41 41 41 41 41 41 41 41 41 41 41 41 41 41 41 41 41
CENTRE ASSIGNMENTS   41 41 41 41 41 41 41 41 41 41 41 41 41 42 42 42 42 42 42 42
CENTRE ASSIGNMENTS   42 42 42 42 42 42 42 42 42 42 43 43 43 43 43 43 43 43 43 43
CENTRE ASSIGNMENTS   43 43 43 43 43 43 43 43 43 43 43 43 43 43 43 43 43 43 43 43
CENTRE ASSIGNMENTS   43 43 43 43 43 43 43 43 43 43 43 43 43 43 43 43 43 43 43 43
CENTRE ASSIGNMENTS   43 43 43 43 43 44 44 44 44 44 44 44 44 44 44 44 44 44 44 44
CENTRE ASSIGNMENTS   44 44 45 45 45 45 45 45 45 45 45 45 45 45 45 45 45 45 45
TYPE ASSIGNMENTS      1  1  1  1  1  1  1  1  1  1  1  1  1  1  1  1  1  1  4  2
TYPE ASSIGNMENTS      3  4  2  3  4  2  3  4  2  3  4  2  3  5  6  7  8  9 10  5
TYPE ASSIGNMENTS      6  7  8  9 10 11 12 13 14 15 16 17 18 19 20  1  1  1  1  1
TYPE ASSIGNMENTS      1  1  1  1  1  1  1  1  1  1  1  1  1  4  2  3  4  2  3  4
TYPE ASSIGNMENTS      2  3  4  2  3  4  2  3  5  6  7  8  9 10  5  6  7  8  9 10
TYPE ASSIGNMENTS     11 12 13 14 15 16 17 18 19 20  1  1  1  1  1  4  2  3  4  2
TYPE ASSIGNMENTS      3  5  6  7  8  9 10  1  1  1  1  1  1  1  1  1  1  1  1  1
TYPE ASSIGNMENTS      1  1  1  1  1  4  2  3  4  2  3  4  2  3  4  2  3  4  2  3
TYPE ASSIGNMENTS      5  6  7  8  9 10  5  6  7  8  9 10 11 12 13 14 15 16 17 18
TYPE ASSIGNMENTS     19 20  1  1  1  1  1  4  2  3  4  2  3  5  6  7  8  9 10  1
TYPE ASSIGNMENTS      1  1  1  1  1  1  1  1  1  1  1  1  1  1  1  1  1  4  2  3
TYPE ASSIGNMENTS      4  2  3  4  2  3  4  2  3  4  2  3  5  6  7  8  9 10  5  6
TYPE ASSIGNMENTS      7  8  9 10 11 12 13 14 15 16 17 18 19 20  1  1  1  1  1  4
TYPE ASSIGNMENTS      2  3  4  2  3  5  6  7  8  9 10  1  1  1  1  1  1  1  1  1
TYPE ASSIGNMENTS      1  1  1  1  1  1  1  1  1  4  2  3  4  2  3  4  2  3  4  2
TYPE ASSIGNMENTS      3  4  2  3  5  6  7  8  9 10  5  6  7  8  9 10 11 12 13 14
TYPE ASSIGNMENTS     15 16 17 18 19 20  1  1  1  1  1  4  2  3  4  2  3  5  6  7
TYPE ASSIGNMENTS      8  9 10  1  1  1  1  1  1  1  1  1  1  1  1  1  1  1  1  1
TYPE ASSIGNMENTS      1  4  2  3  4  2  3  4  2  3  4  2  3  4  2  3  5  6  7  8
TYPE ASSIGNMENTS      9 10  5  6  7  8  9 10 11 12 13 14 15 16 17 18 19 20  1  1
TYPE ASSIGNMENTS      1  1  1  1  1  1  1  1  1  1  1  1  1  1  1  1  4  2  3  4
TYPE ASSIGNMENTS      2  3  4  2  3  4  2  3  4  2  3  5  6  7  8  9 10  5  6  7
TYPE ASSIGNMENTS      8  9 10 11 12 13 14 15 16 17 18 19 20  1  1  1  1  1  4  2
TYPE ASSIGNMENTS      3  4  2  3  5  6  7  8  9 10  1  1  1  1  1  1  1  1  1  1
TYPE ASSIGNMENTS      1  1  1  1  1  1  1  1  4  2  3  4  2  3  4  2  3  4  2  3
TYPE ASSIGNMENTS      4  2  3  5  6  7  8  9 10  5  6  7  8  9 10 11 12 13 14 15
TYPE ASSIGNMENTS     16 17 18 19 20  1  1  1  1  1  4  2  3  4  2  3  5  6  7  8
TYPE ASSIGNMENTS      9 10  1  1  1  1  1  1  1  1  1  1  1  1  1  1  1  1  1  1
TYPE ASSIGNMENTS      4  2  3  4  2  3  4  2  3  4  2  3  4  2  3  5  6  7  8  9
TYPE ASSIGNMENTS     10  5  6  7  8  9 10 11 12 13 14 15 16 17 18 19 20  1  1  1
TYPE ASSIGNMENTS      1  1  4  2  3  4  2  3  5  6  7  8  9 10  1  1  1  1  1  1
TYPE ASSIGNMENTS      1  1  1  1  1  1  1  1  1  1  1  1  4  2  3  4  2  3  4  2
TYPE ASSIGNMENTS      3  4  2  3  4  2  3  5  6  7  8  9 10  5  6  7  8  9 10 11
TYPE ASSIGNMENTS     12 13 14 15 16 17 18 19 20  1  1  1  1  1  4  2  3  4  2  3
TYPE ASSIGNMENTS      5  6  7  8  9 10  1  1  1  1  1  1  1  1  1  1  1  1  1  1
TYPE ASSIGNMENTS      1  1  1  1  4  2  3  4  2  3  4  2  3  4  2  3  4  2  3  5
TYPE ASSIGNMENTS      6  7  8  9 10  5  6  7  8  9 10 11 12 13 14 15 16 17 18 19
TYPE ASSIGNMENTS     20  1  1  1  1  1  1  1  1  1  1  1  1  1  1  1  1  1  1  4
TYPE ASSIGNMENTS      2  3  4  2  3  4  2  3  4  2  3  4  2  3  5  6  7  8  9 10
TYPE ASSIGNMENTS      5  6  7  8  9 10 11 12 13 14 15 16 17 18 19 20  1  1  1  1
TYPE ASSIGNMENTS      1  4  2  3  4  2  3  5  6  7  8  9 10  1  1  1  1  1  1  1
TYPE ASSIGNMENTS      1  1  1  1  1  1  1  1  1  1  1  4  2  3  4  2  3  4  2  3
TYPE ASSIGNMENTS      4  2  3  4  2  3  5  6  7  8  9 10  5  6  7  8  9 10 11 12
TYPE ASSIGNMENTS     13 14 15 16 17 18 19 20  1  1  1  1  1  4  2  3  4  2  3  5
TYPE ASSIGNMENTS      6  7  8  9 10  1  1  1  1  1  4  2  3  4  2  3  5  6  7  8
TYPE ASSIGNMENTS      9 10  1  1  1  1  1  1  1  1  1  1  1  1  1  1  1  1  1  1
TYPE ASSIGNMENTS      4  2  3  4  2  3  4  2  3  4  2  3  4  2  3  5  6  7  8  9
TYPE ASSIGNMENTS     10  5  6  7  8  9 10 11 12 13 14 15 16 17 18 19 20  1  1  1
TYPE ASSIGNMENTS      1  1  4  2  3  4  2  3  5  6  7  8  9 10  1  1  1  1  1  1
TYPE ASSIGNMENTS      1  1  1  1  1  1  1  1  1  1  1  1  4  2  3  4  2  3  4  2
TYPE ASSIGNMENTS      3  4  2  3  4  2  3  5  6  7  8  9 10  5  6  7  8  9 10 11
TYPE ASSIGNMENTS     12 13 14 15 16 17 18 19 20  1  1  1  1  1  4  2  3  4  2  3
TYPE ASSIGNMENTS      5  6  7  8  9 10  1  1  1  1  1  1  1  1  1  1  1  1  1  1
TYPE ASSIGNMENTS      1  1  1  1  4  2  3  4  2  3  4  2  3  4  2  3  4  2  3  5
TYPE ASSIGNMENTS      6  7  8  9 10  5  6  7  8  9 10 11 12 13 14 15 16 17 18 19
TYPE ASSIGNMENTS     20  1  1  1  1  1  4  2  3  4  2  3  5  6  7  8  9 10  1  1
TYPE ASSIGNMENTS      1  1  1  1  1  1  1  1  1  1  1  1  1  1  1  1  4  2  3  4
TYPE ASSIGNMENTS      2  3  4  2  3  4  2  3  4  2  3  5  6  7  8  9 10  5  6  7
TYPE ASSIGNMENTS      8  9 10 11 12 13 14 15 16 17 18 19 20  1  1  1  1  1  4  2
TYPE ASSIGNMENTS      3  4  2  3  5  6  7  8  9 10  1  1  1  1  1  1  1  1  1  1
TYPE ASSIGNMENTS      1  1  1  1  1  1  1  1  4  2  3  4  2  3  4  2  3  4  2  3
TYPE ASSIGNMENTS      4  2  3  5  6  7  8  9 10  5  6  7  8  9 10 11 12 13 14 15
TYPE ASSIGNMENTS     16 17 18 19 20  1  1  1  1  1  1  1  1  1  1  1  1  1  1  1
TYPE ASSIGNMENTS      1  1  1  4  2  3  4  2  3  4  2  3  4  2  3  4  2  3  5  6
TYPE ASSIGNMENTS      7  8  9 10  5  6  7  8  9 10 11 12 13 14 15 16 17 18 19 20
TYPE ASSIGNMENTS      1  1  1  1  1  4  2  3  4  2  3  5  6  7  8  9 10  1  1  1
TYPE ASSIGNMENTS      1  1  4  2  3  4  2  3  5  6  7  8  9 10  1  1  1  1  1  1
TYPE ASSIGNMENTS      1  1  1  1  1  1  1  1  1  1  1  1  4  2  3  4  2  3  4  2
TYPE ASSIGNMENTS      3  4  2  3  4  2  3  5  6  7  8  9 10  5  6  7  8  9 10 11
TYPE ASSIGNMENTS     12 13 14 15 16 17 18 19 20  1  1  1  1  1  4  2  3  4  2  3
TYPE ASSIGNMENTS      5  6  7  8  9 10  1  1  1  1  1  1  1  1  1  1  1  1  1  1
TYPE ASSIGNMENTS      1  1  1  1  4  2  3  4  2  3  4  2  3  4  2  3  4  2  3  5
TYPE ASSIGNMENTS      6  7  8  9 10  5  6  7  8  9 10 11 12 13 14 15 16 17 18 19
TYPE ASSIGNMENTS     20  1  1  1  1  1  4  2  3  4  2  3  5  6  7  8  9 10  1  1
TYPE ASSIGNMENTS      1  1  1  1  1  1  1  1  1  1  1  1  1  1  1  1  4  2  3  4
TYPE ASSIGNMENTS      2  3  4  2  3  4  2  3  4  2  3  5  6  7  8  9 10  5  6  7
TYPE ASSIGNMENTS      8  9 10 11 12 13 14 15 16 17 18 19 20  1  1  1  1  1  4  2
TYPE ASSIGNMENTS      3  4  2  3  5  6  7  8  9 10  1  1  1  1  1  1  1  1  1  1
TYPE ASSIGNMENTS      1  1  1  1  1  1  1  1  4  2  3  4  2  3  4  2  3  4  2  3
TYPE ASSIGNMENTS      4  2  3  5  6  7  8  9 10  5  6  7  8  9 10 11 12 13 14 15
TYPE ASSIGNMENTS     16 17 18 19 20  1  1  1  1  1  4  2  3  4  2  3  5  6  7  8
TYPE ASSIGNMENTS      9 10  1  1  1  1  1  4  2  3  4  2  3  5  6  7  8  9 10
EXPONENTS  1.5330000E+04 2.2990000E+03 5.2240000E+02 1.4730000E+02 4.7550000E+01
EXPONENTS  1.6760000E+01 6.2070000E+00 6.8820000E-01 1.5330000E+04 2.2990000E+03
EXPONENTS  5.2240000E+02 1.4730000E+02 4.7550000E+01 1.6760000E+01 6.2070000E+00
EXPONENTS  6.8820000E-01 1.7520000E+00 2.3840000E-01 3.4460000E+01 3.4460000E+01
EXPONENTS  3.4460000E+01 7.7490000E+00 7.7490000E+00 7.7490000E+00 2.2800000E+00
EXPONENTS  2.2800000E+00 2.2800000E+00 7.1560000E-01 7.1560000E-01 7.1560000E-01
EXPONENTS  2.1400000E-01 2.1400000E-01 2.1400000E-01 2.3140000E+00 2.3140000E+00
EXPONENTS  2.3140000E+00 2.3140000E+00 2.3140000E+00 2.3140000E+00 6.4500000E-01
EXPONENTS  6.4500000E-01 6.4500000E-01 6.4500000E-01 6.4500000E-01 6.4500000E-01
EXPONENTS  1.4280000E+00 1.4280000E+00 1.4280000E+00 1.4280000E+00 1.4280000E+00
EXPONENTS  1.4280000E+00 1.4280000E+00 1.4280000E+00 1.4280000E+00 1.4280000E+00
EXPONENTS  1.5330000E+04 2.2990000E+03 5.2240000E+02 1.4730000E+02 4.7550000E+01
EXPONENTS  1.6760000E+01 6.2070000E+00 6.8820000E-01 1.5330000E+04 2.2990000E+03
EXPONENTS  5.2240000E+02 1.4730000E+02 4.7550000E+01 1.6760000E+01 6.2070000E+00
EXPONENTS  6.8820000E-01 1.7520000E+00 2.3840000E-01 3.4460000E+01 3.4460000E+01
EXPONENTS  3.4460000E+01 7.7490000E+00 7.7490000E+00 7.7490000E+00 2.2800000E+00
EXPONENTS  2.2800000E+00 2.2800000E+00 7.1560000E-01 7.1560000E-01 7.1560000E-01
EXPONENTS  2.1400000E-01 2.1400000E-01 2.1400000E-01 2.3140000E+00 2.3140000E+00
EXPONENTS  2.3140000E+00 2.3140000E+00 2.3140000E+00 2.3140000E+00 6.4500000E-01
EXPONENTS  6.4500000E-01 6.4500000E-01 6.4500000E-01 6.4500000E-01 6.4500000E-01
EXPONENTS  1.4280000E+00 1.4280000E+00 1.4280000E+00 1.4280000E+00 1.4280000E+00
EXPONENTS  1.4280000E+00 1.4280000E+00 1.4280000E+00 1.4280000E+00 1.4280000E+00
EXPONENTS  3.3870000E+01 5.0950000E+00 1.1590000E+00 3.2580000E-01 1.0270000E-01
EXPONENTS  1.4070000E+00 1.4070000E+00 1.4070000E+00 3.8800000E-01 3.8800000E-01
EXPONENTS  3.8800000E-01 1.0570000E+00 1.0570000E+00 1.0570000E+00 1.0570000E+00
EXPONENTS  1.0570000E+00 1.0570000E+00 1.5330000E+04 2.2990000E+03 5.2240000E+02
EXPONENTS  1.4730000E+02 4.7550000E+01 1.6760000E+01 6.2070000E+00 6.8820000E-01
EXPONENTS  1.5330000E+04 2.2990000E+03 5.2240000E+02 1.4730000E+02 4.7550000E+01
EXPONENTS  1.6760000E+01 6.2070000E+00 6.8820000E-01 1.7520000E+00 2.3840000E-01
EXPONENTS  3.4460000E+01 3.4460000E+01 3.4460000E+01 7.7490000E+00 7.7490000E+00
EXPONENTS  7.7490000E+00 2.2800000E+00 2.2800000E+00 2.2800000E+00 7.1560000E-01
EXPONENTS  7.1560000E-01 7.1560000E-01 2.1400000E-01 2.1400000E-01 2.1400000E-01
EXPONENTS  2.3140000E+00 2.3140000E+00 2.3140000E+00 2.3140000E+00 2.3140000E+00
EXPONENTS  2.3140000E+00 6.4500000E-01 6.4500000E-01 6.4500000E-01 6.4500000E-01
EXPONENTS  6.4500000E-01 6.4500000E-01 1.4280000E+00 1.4280000E+00 1.4280000E+00
EXPONENTS  1.4280000E+00 1.4280000E+00 1.4280000E+00 1.4280000E+00 1.4280000E+00
EXPONENTS  1.4280000E+00 1.4280000E+00 3.3870000E+01 5.0950000E+00 1.1590000E+00
EXPONENTS  3.2580000E-01 1.0270000E-01 1.4070000E+00 1.4070000E+00 1.4070000E+00
EXPONENTS  3.8800000E-01 3.8800000E-01 3.8800000E-01 1.0570000E+00 1.0570000E+00
EXPONENTS  1.0570000E+00 1.0570000E+00 1.0570000E+00 1.0570000E+00 1.5330000E+04
EXPONENTS  2.2990000E+03 5.2240000E+02 1.4730000E+02 4.7550000E+01 1.6760000E+01
EXPONENTS  6.2070000E+00 6.8820000E-01 1.5330000E+04 2.2990000E+03 5.2240000E+02
EXPONENTS  1.4730000E+02 4.7550000E+01 1.6760000E+01 6.2070000E+00 6.8820000E-01
EXPONENTS  1.7520000E+00 2.3840000E-01 3.4460000E+01 3.4460000E+01 3.4460000E+01
EXPONENTS  7.7490000E+00 7.7490000E+00 7.7490000E+00 2.2800000E+00 2.2800000E+00
EXPONENTS  2.2800000E+00 7.1560000E-01 7.1560000E-01 7.1560000E-01 2.1400000E-01
EXPONENTS  2.1400000E-01 2.1400000E-01 2.3140000E+00 2.3140000E+00 2.3140000E+00
EXPONENTS  2.3140000E+00 2.3140000E+00 2.3140000E+00 6.4500000E-01 6.4500000E-01
EXPONENTS  6.4500000E-01 6.4500000E-01 6.4500000E-01 6.4500000E-01 1.4280000E+00
EXPONENTS  1.4280000E+00 1.4280000E+00 1.4280000E+00 1.4280000E+00 1.4280000E+00
EXPONENTS  1.4280000E+00 1.4280000E+00 1.4280000E+00 1.4280000E+00 3.3870000E+01
EXPONENTS  5.0950000E+00 1.1590000E+00 3.2580000E-01 1.0270000E-01 1.4070000E+00
EXPONENTS  1.4070000E+00 1.4070000E+00 3.8800000E-01 3.8800000E-01 3.8800000E-01
EXPONENTS  1.0570000E+00 1.0570000E+00 1.0570000E+00 1.0570000E+00 1.0570000E+00
EXPONENTS  1.0570000E+00 1.5330000E+04 2.2990000E+03 5.2240000E+02 1.4730000E+02
EXPONENTS  4.7550000E+01 1.6760000E+01 6.2070000E+00 6.8820000E-01 1.5330000E+04
EXPONENTS  2.2990000E+03 5.2240000E+02 1.4730000E+02 4.7550000E+01 1.6760000E+01
EXPONENTS  6.2070000E+00 6.8820000E-01 1.7520000E+00 2.3840000E-01 3.4460000E+01
EXPONENTS  3.4460000E+01 3.4460000E+01 7.7490000E+00 7.7490000E+00 7.7490000E+00
EXPONENTS  2.2800000E+00 2.2800000E+00 2.2800000E+00 7.1560000E-01 7.1560000E-01
EXPONENTS  7.1560000E-01 2.1400000E-01 2.1400000E-01 2.1400000E-01 2.3140000E+00
EXPONENTS  2.3140000E+00 2.3140000E+00 2.3140000E+00 2.3140000E+00 2.3140000E+00
EXPONENTS  6.4500000E-01 6.4500000E-01 6.4500000E-01 6.4500000E-01 6.4500000E-01
EXPONENTS  6.4500000E-01 1.4280000E+00 1.4280000E+00 1.4280000E+00 1.4280000E+00
EXPONENTS  1.4280000E+00 1.4280000E+00 1.4280000E+00 1.4280000E+00 1.4280000E+00
EXPONENTS  1.4280000E+00 3.3870000E+01 5.0950000E+00 1.1590000E+00 3.2580000E-01
EXPONENTS  1.0270000E-01 1.4070000E+00 1.4070000E+00 1.4070000E+00 3.8800000E-01
EXPONENTS  3.8800000E-01 3.8800000E-01 1.0570000E+00 1.0570000E+00 1.0570000E+00
EXPONENTS  1.0570000E+00 1.0570000E+00 1.0570000E+00 1.5330000E+04 2.2990000E+03
EXPONENTS  5.2240000E+02 1.4730000E+02 4.7550000E+01 1.6760000E+01 6.2070000E+00
EXPONENTS  6.8820000E-01 1.5330000E+04 2.2990000E+03 5.2240000E+02 1.4730000E+02
EXPONENTS  4.7550000E+01 1.6760000E+01 6.2070000E+00 6.8820000E-01 1.7520000E+00
EXPONENTS  2.3840000E-01 3.4460000E+01 3.4460000E+01 3.4460000E+01 7.7490000E+00
EXPONENTS  7.7490000E+00 7.7490000E+00 2.2800000E+00 2.2800000E+00 2.2800000E+00
EXPONENTS  7.1560000E-01 7.1560000E-01 7.1560000E-01 2.1400000E-01 2.1400000E-01
EXPONENTS  2.1400000E-01 2.3140000E+00 2.3140000E+00 2.3140000E+00 2.3140000E+00
EXPONENTS  2.3140000E+00 2.3140000E+00 6.4500000E-01 6.4500000E-01 6.4500000E-01
EXPONENTS  6.4500000E-01 6.4500000E-01 6.4500000E-01 1.4280000E+00 1.4280000E+00
EXPONENTS  1.4280000E+00 1.4280000E+00 1.4280000E+00 1.4280000E+00 1.4280000E+00
EXPONENTS  1.4280000E+00 1.4280000E+00 1.4280000E+00 1.5330000E+04 2.2990000E+03
EXPONENTS  5.2240000E+02 1.4730000E+02 4.7550000E+01 1.6760000E+01 6.2070000E+00
EXPONENTS  6.8820000E-01 1.5330000E+04 2.2990000E+03 5.2240000E+02 1.4730000E+02
EXPONENTS  4.7550000E+01 1.6760000E+01 6.2070000E+00 6.8820000E-01 1.7520000E+00
EXPONENTS  2.3840000E-01 3.4460000E+01 3.4460000E+01 3.4460000E+01 7.7490000E+00
EXPONENTS  7.7490000E+00 7.7490000E+00 2.2800000E+00 2.2800000E+00 2.2800000E+00
EXPONENTS  7.1560000E-01 7.1560000E-01 7.1560000E-01 2.1400000E-01 2.1400000E-01
EXPONENTS  2.1400000E-01 2.3140000E+00 2.3140000E+00 2.3140000E+00 2.3140000E+00
EXPONENTS  2.3140000E+00 2.3140000E+00 6.4500000E-01 6.4500000E-01 6.4500000E-01
EXPONENTS  6.4500000E-01 6.4500000E-01 6.4500000E-01 1.4280000E+00 1.4280000E+00
EXPONENTS  1.4280000E+00 1.4280000E+00 1.4280000E+00 1.4280000E+00 1.4280000E+00
EXPONENTS  1.4280000E+00 1.4280000E+00 1.4280000E+00 3.3870000E+01 5.0950000E+00
EXPONENTS  1.1590000E+00 3.2580000E-01 1.0270000E-01 1.4070000E+00 1.4070000E+00
EXPONENTS  1.4070000E+00 3.8800000E-01 3.8800000E-01 3.8800000E-01 1.0570000E+00
EXPONENTS  1.0570000E+00 1.0570000E+00 1.0570000E+00 1.0570000E+00 1.0570000E+00
EXPONENTS  1.5330000E+04 2.2990000E+03 5.2240000E+02 1.4730000E+02 4.7550000E+01
EXPONENTS  1.6760000E+01 6.2070000E+00 6.8820000E-01 1.5330000E+04 2.2990000E+03
EXPONENTS  5.2240000E+02 1.4730000E+02 4.7550000E+01 1.6760000E+01 6.2070000E+00
EXPONENTS  6.8820000E-01 1.7520000E+00 2.3840000E-01 3.4460000E+01 3.4460000E+01
EXPONENTS  3.4460000E+01 7.7490000E+00 7.7490000E+00 7.7490000E+00 2.2800000E+00
EXPONENTS  2.2800000E+00 2.2800000E+00 7.1560000E-01 7.1560000E-01 7.1560000E-01
EXPONENTS  2.1400000E-01 2.1400000E-01 2.1400000E-01 2.3140000E+00 2.3140000E+00
EXPONENTS  2.3140000E+00 2.3140000E+00 2.3140000E+00 2.3140000E+00 6.4500000E-01
EXPONENTS  6.4500000E-01 6.4500000E-01 6.4500000E-01 6.4500000E-01 6.4500000E-01
EXPONENTS  1.4280000E+00 1.4280000E+00 1.4280000E+00 1.4280000E+00 1.4280000E+00
EXPONENTS  1.4280000E+00 1.4280000E+00 1.4280000E+00 1.4280000E+00 1.4280000E+00
EXPONENTS  3.3870000E+01 5.0950000E+00 1.1590000E+00 3.2580000E-01 1.0270000E-01
EXPONENTS  1.4070000E+00 1.4070000E+00 1.4070000E+00 3.8800000E-01 3.8800000E-01
EXPONENTS  3.8800000E-01 1.0570000E+00 1.0570000E+00 1.0570000E+00 1.0570000E+00
EXPONENTS  1.0570000E+00 1.0570000E+00 1.5330000E+04 2.2990000E+03 5.2240000E+02
EXPONENTS  1.4730000E+02 4.7550000E+01 1.6760000E+01 6.2070000E+00 6.8820000E-01
EXPONENTS  1.5330000E+04 2.2990000E+03 5.2240000E+02 1.4730000E+02 4.7550000E+01
EXPONENTS  1.6760000E+01 6.2070000E+00 6.8820000E-01 1.7520000E+00 2.3840000E-01
EXPONENTS  3.4460000E+01 3.4460000E+01 3.4460000E+01 7.7490000E+00 7.7490000E+00
EXPONENTS  7.7490000E+00 2.2800000E+00 2.2800000E+00 2.2800000E+00 7.1560000E-01
EXPONENTS  7.1560000E-01 7.1560000E-01 2.1400000E-01 2.1400000E-01 2.1400000E-01
EXPONENTS  2.3140000E+00 2.3140000E+00 2.3140000E+00 2.3140000E+00 2.3140000E+00
EXPONENTS  2.3140000E+00 6.4500000E-01 6.4500000E-01 6.4500000E-01 6.4500000E-01
EXPONENTS  6.4500000E-01 6.4500000E-01 1.4280000E+00 1.4280000E+00 1.4280000E+00
EXPONENTS  1.4280000E+00 1.4280000E+00 1.4280000E+00 1.4280000E+00 1.4280000E+00
EXPONENTS  1.4280000E+00 1.4280000E+00 3.3870000E+01 5.0950000E+00 1.1590000E+00
EXPONENTS  3.2580000E-01 1.0270000E-01 1.4070000E+00 1.4070000E+00 1.4070000E+00
EXPONENTS  3.8800000E-01 3.8800000E-01 3.8800000E-01 1.0570000E+00 1.0570000E+00
EXPONENTS  1.0570000E+00 1.0570000E+00 1.0570000E+00 1.0570000E+00 1.5330000E+04
EXPONENTS  2.2990000E+03 5.2240000E+02 1.4730000E+02 4.7550000E+01 1.6760000E+01
EXPONENTS  6.2070000E+00 6.8820000E-01 1.5330000E+04 2.2990000E+03 5.2240000E+02
EXPONENTS  1.4730000E+02 4.7550000E+01 1.6760000E+01 6.2070000E+00 6.8820000E-01
EXPONENTS  1.7520000E+00 2.3840000E-01 3.4460000E+01 3.4460000E+01 3.4460000E+01
EXPONENTS  7.7490000E+00 7.7490000E+00 7.7490000E+00 2.2800000E+00 2.2800000E+00
EXPONENTS  2.2800000E+00 7.1560000E-01 7.1560000E-01 7.1560000E-01 2.1400000E-01
EXPONENTS  2.1400000E-01 2.1400000E-01 2.3140000E+00 2.3140000E+00 2.3140000E+00
EXPONENTS  2.3140000E+00 2.3140000E+00 2.3140000E+00 6.4500000E-01 6.4500000E-01
EXPONENTS  6.4500000E-01 6.4500000E-01 6.4500000E-01 6.4500000E-01 1.4280000E+00
EXPONENTS  1.4280000E+00 1.4280000E+00 1.4280000E+00 1.4280000E+00 1.4280000E+00
EXPONENTS  1.4280000E+00 1.4280000E+00 1.4280000E+00 1.4280000E+00 3.3870000E+01
EXPONENTS  5.0950000E+00 1.1590000E+00 3.2580000E-01 1.0270000E-01 1.4070000E+00
EXPONENTS  1.4070000E+00 1.4070000E+00 3.8800000E-01 3.8800000E-01 3.8800000E-01
EXPONENTS  1.0570000E+00 1.0570000E+00 1.0570000E+00 1.0570000E+00 1.0570000E+00
EXPONENTS  1.0570000E+00 1.5330000E+04 2.2990000E+03 5.2240000E+02 1.4730000E+02
EXPONENTS  4.7550000E+01 1.6760000E+01 6.2070000E+00 6.8820000E-01 1.5330000E+04
EXPONENTS  2.2990000E+03 5.2240000E+02 1.4730000E+02 4.7550000E+01 1.6760000E+01
EXPONENTS  6.2070000E+00 6.8820000E-01 1.7520000E+00 2.3840000E-01 3.4460000E+01
EXPONENTS  3.4460000E+01 3.4460000E+01 7.7490000E+00 7.7490000E+00 7.7490000E+00
EXPONENTS  2.2800000E+00 2.2800000E+00 2.2800000E+00 7.1560000E-01 7.1560000E-01
EXPONENTS  7.1560000E-01 2.1400000E-01 2.1400000E-01 2.1400000E-01 2.3140000E+00
EXPONENTS  2.3140000E+00 2.3140000E+00 2.3140000E+00 2.3140000E+00 2.3140000E+00
EXPONENTS  6.4500000E-01 6.4500000E-01 6.4500000E-01 6.4500000E-01 6.4500000E-01
EXPONENTS  6.4500000E-01 1.4280000E+00 1.4280000E+00 1.4280000E+00 1.4280000E+00
EXPONENTS  1.4280000E+00 1.4280000E+00 1.4280000E+00 1.4280000E+00 1.4280000E+00
EXPONENTS  1.4280000E+00 8.2360000E+03 1.2350000E+03 2.8080000E+02 7.9270000E+01
EXPONENTS  2.5590000E+01 8.9970000E+00 3.3190000E+00 3.6430000E-01 8.2360000E+03
EXPONENTS  1.2350000E+03 2.8080000E+02 7.9270000E+01 2.5590000E+01 8.9970000E+00
EXPONENTS  3.3190000E+00 3.6430000E-01 9.0590000E-01 1.2850000E-01 1.8710000E+01
EXPONENTS  1.8710000E+01 1.8710000E+01 4.1330000E+00 4.1330000E+00 4.1330000E+00
EXPONENTS  1.2000000E+00 1.2000000E+00 1.2000000E+00 3.8270000E-01 3.8270000E-01
EXPONENTS  3.8270000E-01 1.2090000E-01 1.2090000E-01 1.2090000E-01 1.0970000E+00
EXPONENTS  1.0970000E+00 1.0970000E+00 1.0970000E+00 1.0970000E+00 1.0970000E+00
EXPONENTS  3.1800000E-01 3.1800000E-01 3.1800000E-01 3.1800000E-01 3.1800000E-01
EXPONENTS  3.1800000E-01 7.6100000E-01 7.6100000E-01 7.6100000E-01 7.6100000E-01
EXPONENTS  7.6100000E-01 7.6100000E-01 7.6100000E-01 7.6100000E-01 7.6100000E-01
EXPONENTS  7.6100000E-01 3.3870000E+01 5.0950000E+00 1.1590000E+00 3.2580000E-01
EXPONENTS  1.0270000E-01 1.4070000E+00 1.4070000E+00 1.4070000E+00 3.8800000E-01
EXPONENTS  3.8800000E-01 3.8800000E-01 1.0570000E+00 1.0570000E+00 1.0570000E+00
EXPONENTS  1.0570000E+00 1.0570000E+00 1.0570000E+00 8.2360000E+03 1.2350000E+03