[Molden Format]
[Title]
 Molden file created by orca_2mkl for BaseName=.\Ce_full

[Atoms] AU
Ce   1  58          0.0000000000         0.0000000000         0.0000000000 
[GTO]
  1 0
s   1 1.0 
 22297831.7330222018    231263.4858891825
s   1 1.0 
 11387194.5850786008    139708.4417376102
s   1 1.0 
  5815282.9419019101     84399.1805178622
s   1 1.0 
  2969784.6507943799     50986.3368561864
s   1 1.0 
  1516627.9887336700     30801.3244922720
s   1 1.0 
   774520.9591527350     18607.3691301697
s   1 1.0 
   395537.1525668310     11240.8862817981
s   1 1.0 
   201995.3588238840      6790.7248744500
s   1 1.0 
   103156.2388554530      4102.3406130480
s   1 1.0 
    52680.4659115021      2478.2624560130
s   1 1.0 
    26903.1860742975      1497.1416028568
s   1 1.0 
    13739.0854166734       904.4372897497
s   1 1.0 
     7016.3610943830       546.3790529425
s   1 1.0 
     3583.1586684095       330.0727124785
s   1 1.0 
     1829.8696247655       199.4000226329
s   1 1.0 
      934.4891347292       120.4594246142
s   1 1.0 
      477.2306896120        72.7706686629
s   1 1.0 
      243.7151194632        43.9614437359
s   1 1.0 
      124.4619441873        26.5575206448
s   1 1.0 
       63.5609952513        16.0436474069
s   1 1.0 
       32.4597220759         9.6921179337
s   1 1.0 
       16.5767315801         5.8550993835
s   1 1.0 
        8.4655077833         3.5371204751
s   1 1.0 
        4.3232178601         2.1368076673
s   1 1.0 
        2.2078076288         1.2908655612
s   1 1.0 
        1.1274968516         0.7798239975
s   1 1.0 
        0.5757970639         0.4710989939
s   1 1.0 
        0.2940516050         0.2845953225
s   1 1.0 
        0.1501680918         0.1719267046
s   1 1.0 
        0.0766887697         0.1038625354
s   1 1.0 
        0.0391638951         0.0627443322
s   1 1.0 
        0.0200004601         0.0379044398
p   1 1.0 
   103156.2388554530   2635175.0004698690
p   1 1.0 
    52680.4659115022   1137632.7787800739
p   1 1.0 
    26903.1860742976    491128.0423972237
p   1 1.0 
    13739.0854166734    212025.1442540044
p   1 1.0 
     7016.3610943830     91533.4860060225
p   1 1.0 
     3583.1586684095     39515.9691549483
p   1 1.0 
     1829.8696247655     17059.4597276901
p   1 1.0 
      934.4891347292      7364.7482884584
p   1 1.0 
      477.2306896120      3179.4393385338
p   1 1.0 
      243.7151194632      1372.5974210494
p   1 1.0 
      124.4619441873       592.5647510987
p   1 1.0 
       63.5609952513       255.8164388624
p   1 1.0 
       32.4597220759       110.4386487231
p   1 1.0 
       16.5767315801        47.6775268470
p   1 1.0 
        8.4655077833        20.5828900709
p   1 1.0 
        4.3232178601         8.8858502462
p   1 1.0 
        2.2078076288         3.8361150609
p   1 1.0 
        1.1274968516         1.6560912409
p   1 1.0 
        0.5757970639         0.7149520164
p   1 1.0 
        0.2940516050         0.3086523092
p   1 1.0 
        0.1501680918         0.1332484500
p   1 1.0 
        0.0766887697         0.0575247581
d   1 1.0 
     7016.3610943830  15334370.9194067400
d   1 1.0 
     3583.1586684095   4730811.6036906773
d   1 1.0 
     1829.8696247655   1459504.1783742264
d   1 1.0 
      934.4891347292    450272.0939109079
d   1 1.0 
      477.2306896120    138913.5855580459
d   1 1.0 
      243.7151194632     42856.2740475110
d   1 1.0 
      124.4619441873     13221.6026089681
d   1 1.0 
       63.5609952513      4079.0007865750
d   1 1.0 
       32.4597220759      1258.4138178222
d   1 1.0 
       16.5767315801       388.2336434202
d   1 1.0 
        8.4655077833       119.7740836509
d   1 1.0 
        4.3232178601        36.9515402839
d   1 1.0 
        2.2078076288        11.3999313352
d   1 1.0 
        1.1274968516         3.5169964080
d   1 1.0 
        0.5757970639         1.0850296699
d   1 1.0 
        0.2940516050         0.3347428453
f   1 1.0 
      243.7151194632   1338090.9777836653
f   1 1.0 
      124.4619441873    295007.0439143766
f   1 1.0 
       63.5609952513     65039.7898229976
f   1 1.0 
       32.4597220759     14339.2313759378
f   1 1.0 
       16.5767315801      3161.3502597755
f   1 1.0 
        8.4655077833       696.9784643934
f   1 1.0 
        4.3232178601       153.6618659467
f   1 1.0 
        2.2078076288        33.8776163863
f   1 1.0 
        1.1274968516         7.4689506401
f   1 1.0 
        0.5757970639         1.6466690876
f   1 1.0 
        0.2940516050         0.3630388276

[5D]
[7F]
[9G]
[MO]
 Sym=     1a
 Ene= -1.40992046680625E+03
 Spin= Alpha
 Occup= 2.000000
  1       0.0000090959437767
  2      -0.0000070828819249
  3       0.0000305548367640
  4       0.0000111727138079
  5       0.0000928111500285
  6       0.0001425403860632
  7       0.0004095322832639
  8       0.0008524206674487
  9       0.0020918400694265
 10       0.0046176681554891
 11       0.0108578550515756
 12       0.0237997768000161
 13       0.0530538789149868
 14       0.1073269793416123
 15       0.2005949783239677
 16       0.2974329123062200
 17       0.2940834236604817
 18       0.1377863226957338
 19       0.0135870268672183
 20       0.0012704185353041
 21      -0.0009705967369933
 22       0.0007353226354641
 23      -0.0005380768051173
 24       0.0003869169700757
 25      -0.0002747862816643
 26       0.0001927179865010
 27      -0.0001327760804618
 28       0.0000886636334808
 29      -0.0000557492777100
 30       0.0000310831398659
 31      -0.0000135189531090
 32       0.0000033263494770
 33       0.0000000000000045
 34       0.0000000000000045
 35      -0.0000000000000045
 36      -0.0000000000000123
 37      -0.0000000000000026
 38       0.0000000000000430
 39       0.0000000000000497
 40       0.0000000000000403
 41      -0.0000000000000858
 42      -0.0000000000000735
 43       0.0000000000000093
 44       0.0000000000003338
 45       0.0000000000003206
 46       0.0000000000003455
 47      -0.0000000000003093
 48      -0.0000000000001538
 49       0.0000000000003788
 50       0.0000000000020845
 51       0.0000000000021243
 52       0.0000000000034350
 53       0.0000000000007126
 54       0.0000000000017064
 55       0.0000000000061001
 56       0.0000000000147721
 57       0.0000000000108507
 58       0.0000000000194764
 59       0.0000000000105537
 60      -0.0000000000020338
 61       0.0000000000078463
 62       0.0000000000279412
 63       0.0000000000095635
 64       0.0000000000052015
 65      -0.0000000000336875
 66      -0.0000000000151873
 67      -0.0000000000070131
 68       0.0000000000523713
 69       0.0000000000209626
 70       0.0000000000098205
 71      -0.0000000000771511
 72      -0.0000000000248118
 73      -0.0000000000119005
 74       0.0000000001047268
 75       0.0000000000260745
 76       0.0000000000122605
 77      -0.0000000001286623
 78      -0.0000000000276516
 79      -0.0000000000128903
 80       0.0000000001415884
 81       0.0000000000319964
 82       0.0000000000191760
 83      -0.0000000001384234
 84      -0.0000000000348202
 85      -0.0000000000272592
 86       0.0000000001157359
 87       0.0000000000308790
 88       0.0000000000279808
 89      -0.0000000000824289
 90      -0.0000000000213315
 91      -0.0000000000207551
 92       0.0000000000498095
 93       0.0000000000107357
 94       0.0000000000108230
 95      -0.0000000000235504
 96      -0.0000000000030122
 97      -0.0000000000031158
 98       0.0000000000065243
 99      -0.0000000000058143
100      -0.0000000000104210
101      -0.0000000000079891
102       0.0000000000080646
103      -0.0000000000009941
104      -0.0000000000004098
105       0.0000000000107068
106       0.0000000000203951
107      -0.0000000000140324
108      -0.0000000000092637
109      -0.0000000000802410
110      -0.0000000001410481
111      -0.0000000001045922
112       0.0000000001056884
113      -0.0000000000172030
114      -0.0000000002466500
115      -0.0000000002820589
116      -0.0000000000464722
117       0.0000000001394862
118      -0.0000000001701517
119      -0.0000000009438230
120      -0.0000000013129490
121      -0.0000000005886543
122       0.0000000008043901
123      -0.0000000004872598
124      -0.0000000014252479
125      -0.0000000019773897
126      -0.0000000008969889
127       0.0000000012290185
128      -0.0000000007199189
129      -0.0000000005312852
130      -0.0000000007922258
131      -0.0000000004082857
132       0.0000000005157102
133      -0.0000000002531756
134      -0.0000000000019996
135       0.0000000000171292
136       0.0000000000261180
137      -0.0000000000167729
138      -0.0000000000099776
139       0.0000000000013014
140      -0.0000000000117944
141      -0.0000000000167849
142       0.0000000000119819
143       0.0000000000058401
144      -0.0000000000085375
145      -0.0000000000008133
146       0.0000000000072657
147      -0.0000000000044580
148      -0.0000000000070350
149       0.0000000000109501
150       0.0000000000055742
151      -0.0000000000027366
152       0.0000000000020049
153       0.0000000000066330
154      -0.0000000000102398
155      -0.0000000000061092
156       0.0000000000000693
157      -0.0000000000010051
158      -0.0000000000056010
159       0.0000000000084463
160       0.0000000000054495
161       0.0000000000022289
162      -0.0000000000005129
163       0.0000000000049161
164      -0.0000000000057955
165      -0.0000000000041734
166      -0.0000000000029049
167       0.0000000000015421
168      -0.0000000000037674
169       0.0000000000028249
170       0.0000000000019918
171       0.0000000000016189
172      -0.0000000000008849
173       0.0000000000020650
174      -0.0000000000008050
175      -0.0000000000004751
176      -0.0000000000004791
177       0.0000000000002527
178      -0.0000000000007764
179      -0.0000000000000143
180       0.0000000000000048
181       0.0000000000000010
182      -0.0000000000000012
183       0.0000000000000084
184      -0.0000000000000063
185      -0.0000000000000103
186       0.0000000000000053
187      -0.0000000000000031
188       0.0000000000000018
189      -0.0000000000000029
190      -0.0000000000000076
191      -0.0000000000000023
192       0.0000000000000028
193      -0.0000000000000126
194       0.0000000000000031
195      -0.0000000000000096
196       0.0000000000000105
197       0.0000000000000093
198       0.0000000000000002
199      -0.0000000000000026
200       0.0000000000000185
201       0.0000000000000082
202       0.0000000000000100
203      -0.0000000000000184
204      -0.0000000000000111
205       0.0000000000000001
206       0.0000000000000052
207      -0.0000000000000216
208      -0.0000000000000140
209      -0.0000000000000086
210       0.0000000000000249
211       0.0000000000000050
212       0.0000000000000024
213      -0.0000000000000105
214       0.0000000000000222
215       0.0000000000000111
216       0.0000000000000055
217      -0.0000000000000268
218       0.0000000000000016
219      -0.0000000000000029
220       0.0000000000000126
221      -0.0000000000000195
222      -0.0000000000000111
223       0.0000000000000060
224       0.0000000000000278
225      -0.0000000000000061
226       0.0000000000000067
227      -0.0000000000000133
228       0.0000000000000143
229       0.0000000000000063
230      -0.0000000000000189
231      -0.0000000000000246
232       0.0000000000000104
233      -0.0000000000000133
234       0.0000000000000098
235      -0.0000000000000044
236      -0.0000000000000075
237       0.0000000000000285
238       0.0000000000000172
239      -0.0000000000000074
240       0.0000000000000189
241       0.0000000000000018
242       0.0000000000000010
243       0.0000000000000141
244      -0.0000000000000278
245      -0.0000000000000124
246       0.0000000000000038
247      -0.0000000000000132
248      -0.0000000000000002
249      -0.0000000000000013
250      -0.0000000000000093
251       0.0000000000000160
252       0.0000000000000048
253       0.0000000000000030
254       0.0000000000000017
255      -0.0000000000000016
 Sym=     1a
 Ene= -2.20051342014805E+02
 Spin= Alpha
 Occup= 2.000000
  1       0.0000029714940339
  2      -0.0000023159379838
  3       0.0000099879924697
  4       0.0000036318231050
  5       0.0000303627249926
  6       0.0000464941053414
  7       0.0001340866402146
  8       0.0002785491992282
  9       0.0006868778583776
 10       0.0015170448925691
 11       0.0036062148556535
 12       0.0079818599426144
 13       0.0183456750552021
 14       0.0392237994176465
 15       0.0801004512307528
 16       0.1451284908848931
 17       0.1925053647671885
 18       0.1012135579162448
 19      -0.3004991977951329
 20      -0.5794332765683483
 21      -0.3018156747597737
 22      -0.0151860402731290
 23      -0.0055730529193319
 24       0.0041013118289111
 25      -0.0029511944692848
 26       0.0020898507997936
 27      -0.0014506837392157
 28       0.0009739468172226
 29      -0.0006145750395625
 30       0.0003434061180333
 31      -0.0001495452083197
 32       0.0000368211568490
 33      -0.0000000000000208
 34      -0.0000000000001295
 35      -0.0000000000000397
 36      -0.0000000000000249
 37      -0.0000000000001379
 38       0.0000000000000317
 39      -0.0000000000000920
 40      -0.0000000000006780
 41      -0.0000000000003428
 42      -0.0000000000004244
 43      -0.0000000000024050
 44      -0.0000000000000442
 45      -0.0000000000008605
 46      -0.0000000000061098
 47      -0.0000000000024212
 48      -0.0000000000040155
 49      -0.0000000000238811
 50      -0.0000000000027898
 51      -0.0000000000090067
 52      -0.0000000000614047
 53      -0.0000000000180975
 54      -0.0000000000320673
 55      -0.0000000001965851
 56      -0.0000000000303629
 57      -0.0000000000660982
 58      -0.0000000004567379
 59      -0.0000000001124727
 60      -0.0000000001931956
 61      -0.0000000011006520
 62      -0.0000000002363698
 63      -0.0000000002952055
 64      -0.0000000016789196
 65      -0.0000000006196658
 66      -0.0000000001524456
 67      -0.0000000013455915
 68       0.0000000002700726
 69      -0.0000000000159346
 70      -0.0000000004441804
 71      -0.0000000005500504
 72      -0.0000000001318408
 73      -0.0000000002038899
 74       0.0000000005914492
 75       0.0000000002681536
 76       0.0000000002246989
 77      -0.0000000008568119
 78      -0.0000000004370565
 79      -0.0000000002425405
 80       0.0000000011294026
 81       0.0000000006069866
 82       0.0000000002931721
 83      -0.0000000013853955
 84      -0.0000000006787395
 85      -0.0000000003887323
 86       0.0000000015665128
 87       0.0000000005750244
 88       0.0000000004011996
 89      -0.0000000015734736
 90      -0.0000000003600364
 91      -0.0000000002602835
 92       0.0000000012910836
 93       0.0000000001645755
 94       0.0000000000845871
 95      -0.0000000007442931
 96      -0.0000000000464844
 97      -0.0000000000047303
 98       0.0000000002271121
 99       0.0000000000032787
100       0.0000000000103241
101       0.0000000000114300
102      -0.0000000000080936
103      -0.0000000000016661
104       0.0000000000642742
105       0.0000000000671415
106       0.0000000000037539
107      -0.0000000000357556
108       0.0000000000462961
109       0.0000000000506726
110       0.0000000001447422
111       0.0000000001548534
112      -0.0000000001139707
113      -0.0000000000195810
114       0.0000000007065508
115       0.0000000008183555
116       0.0000000001620219
117      -0.0000000004569360
118       0.0000000004781603
119       0.0000000015243371
120       0.0000000025921435
121       0.0000000017224611
122      -0.0000000017727959
123       0.0000000004849459
124       0.0000000093280946
125       0.0000000122333807
126       0.0000000046344733
127      -0.0000000074006425
128       0.0000000053613576
129       0.0000000324425513
130       0.0000000470150840
131       0.0000000236412437
132      -0.0000000297256804
133       0.0000000148197165
134       0.0000001271106772
135       0.0000001806022874
136       0.0000000852059573
137      -0.0000001149298758
138       0.0000000648823215
139       0.0000001331416077
140       0.0000001920877504
141       0.0000000917464395
142      -0.0000001230337387
143       0.0000000663510652
144       0.0000000308469614
145       0.0000000377232190
146       0.0000000184551710
147      -0.0000000201928064
148       0.0000000148460519
149      -0.0000000117674194
150      -0.0000000078752570
151      -0.0000000041558621
152      -0.0000000001808455
153      -0.0000000051776704
154       0.0000000080404517
155       0.0000000049720587
156       0.0000000025161100
157       0.0000000005889984
158       0.0000000035527484
159      -0.0000000050696337
160      -0.0000000029337150
161      -0.0000000013473776
162      -0.0000000006922567
163      -0.0000000021872407
164       0.0000000029342628
165       0.0000000016161103
166       0.0000000006541672
167       0.0000000005561785
168       0.0000000012327098
169      -0.0000000014249934
170      -0.0000000007748583
171      -0.0000000002955300
172      -0.0000000002952798
173      -0.0000000005970112
174       0.0000000004286474
175       0.0000000002337134
176       0.0000000000852409
177       0.0000000000915895
178       0.0000000001795114
179       0.0000000000002549
180      -0.0000000000000312
181      -0.0000000000001514
182      -0.0000000000001274
183      -0.0000000000003362
184      -0.0000000000000092
185       0.0000000000000528
186      -0.0000000000005983
187       0.0000000000000337
188       0.0000000000005298
189       0.0000000000005241
190       0.0000000000011704
191       0.0000000000001762
192      -0.0000000000000835
193       0.0000000000023807
194      -0.0000000000009795
195      -0.0000000000008957
196      -0.0000000000010749
197      -0.0000000000030582
198       0.0000000000003318
199       0.0000000000009489
200      -0.0000000000004036
201       0.0000000000005043
202       0.0000000000018787
203       0.0000000000018049
204       0.0000000000039738
205       0.0000000000009237
206      -0.0000000000004540
207       0.0000000000022832
208      -0.0000000000007690
209      -0.0000000000034243
210      -0.0000000000018278
211      -0.0000000000069770
212      -0.0000000000003103
213       0.0000000000011092
214      -0.0000000000024939
215       0.0000000000004705
216       0.0000000000045860
217       0.0000000000015169
218       0.0000000000083686
219       0.0000000000000842
220      -0.0000000000005909
221       0.0000000000011401
222       0.0000000000002728
223      -0.0000000000049225
224      -0.0000000000007861
225      -0.0000000000079084
226       0.0000000000004281
227       0.0000000000003969
228      -0.0000000000003306
229      -0.0000000000014579
230       0.0000000000043106
231       0.0000000000003589
232       0.0000000000063415
233      -0.0000000000019237
234      -0.0000000000017590
235       0.0000000000000619
236       0.0000000000015244
237      -0.0000000000029938
238       0.0000000000001430
239      -0.0000000000045393
240       0.0000000000032555
241       0.0000000000022842
242       0.0000000000003574
243      -0.0000000000007146
244       0.0000000000015563
245      -0.0000000000002853
246       0.0000000000024286
247      -0.0000000000028428
248      -0.0000000000012990
249      -0.0000000000002310
250       0.0000000000004843
251      -0.0000000000008329
252       0.0000000000002070
253      -0.0000000000013014
254       0.0000000000015781
255       0.0000000000006919
 Sym=     1a
 Ene= -2.07994443201086E+02
 Spin= Alpha
 Occup= 2.000000
  1      -0.0000000000000002
  2       0.0000000000000000
  3      -0.0000000000000003
  4      -0.0000000000000013
  5       0.0000000000000000
  6      -0.0000000000000079
  7      -0.0000000000000002
  8      -0.0000000000000387
  9      -0.0000000000000117
 10      -0.0000000000001880
 11      -0.0000000000000746
 12      -0.0000000000010401
 13      -0.0000000000001197
 14      -0.0000000000056646
 15       0.0000000000005172
 16      -0.0000000000229084
 17       0.0000000000114793
 18      -0.0000000000489097
 19       0.0000000000381615
 20       0.0000000000124264
 21       0.0000000002175653
 22      -0.0000000003214135
 23       0.0000000004125354
 24      -0.0000000005226790
 25       0.0000000005922311
 26      -0.0000000005435299
 27       0.0000000003387033
 28      -0.0000000000896034
 29      -0.0000000000765241
 30       0.0000000001218462
 31      -0.0000000000625466
 32       0.0000000000159405
 33       0.0000291394695148
 34      -0.0000026557357174
 35      -0.0000121227648830
 36       0.0000159206882222
 37      -0.0000014509972251
 38      -0.0000066234122770
 39       0.0001730730173720
 40      -0.0000157736563413
 41      -0.0000720028054983
 42       0.0004075297489632
 43      -0.0000371418094725
 44      -0.0001695427904218
 45       0.0014380182180350
 46      -0.0001310592067940
 47      -0.0005982523779770
 48       0.0044633703690885
 49      -0.0004067864271079
 50      -0.0018568761932884
 51       0.0135657607267956
 52      -0.0012363670355528
 53      -0.0056437035200395
 54       0.0386340265892532
 55      -0.0035210599730857
 56      -0.0160727430349167
 57       0.0995676501498154
 58      -0.0090744765072957
 59      -0.0414226894492603
 60       0.2138361383449729
 61      -0.0194887741665323
 62      -0.0889613022300461
 63       0.3305510801195149
 64      -0.0301260309648436
 65      -0.1375177047344170
 66       0.2801773183987267
 67      -0.0255350296723046
 68      -0.1165609294761625
 69       0.0965077124359476
 70      -0.0087955953294074
 71      -0.0401496789489000
 72       0.0035541475744199
 73      -0.0003239241114332
 74      -0.0014786132074729
 75       0.0015455798293601
 76      -0.0001408581942563
 77      -0.0006430040513962
 78      -0.0010674830098104
 79       0.0000972861309237
 80       0.0004441025403549
 81       0.0007319118947024
 82      -0.0000667034952772
 83      -0.0003044956044802
 84      -0.0004900362128325
 85       0.0000446599194430
 86       0.0002038685986103
 87       0.0003123994010523
 88      -0.0000284708172537
 89      -0.0001299667778655
 90      -0.0001800000664318
 91       0.0000164044797878
 92       0.0000748849987346
 93       0.0000834423295102
 94      -0.0000076045985723
 95      -0.0000347143135925
 96      -0.0000228701945936
 97       0.0000020842974486
 98       0.0000095146327116
 99       0.0000000000000607
100      -0.0000000000000005
101       0.0000000000000567
102      -0.0000000000001007
103      -0.0000000000000703
104      -0.0000000000003926
105       0.0000000000001585
106      -0.0000000000003792
107       0.0000000000005387
108       0.0000000000005570
109       0.0000000000006712
110       0.0000000000000774
111       0.0000000000007196
112      -0.0000000000011734
113      -0.0000000000008835
114      -0.0000000000036328
115       0.0000000000023928
116      -0.0000000000035297
117       0.0000000000041618
118       0.0000000000053444
119      -0.0000000000016293
120       0.0000000000062735
121       0.0000000000000125
122      -0.0000000000028040
123       0.0000000000024055
124      -0.0000000000430922
125       0.0000000000469418
126      -0.0000000000355039
127       0.0000000000406486
128       0.0000000000600747
129       0.0000000000048961
130       0.0000000000069021
131      -0.0000000000068798
132      -0.0000000000165248
133       0.0000000000337128
134       0.0000000000366708
135      -0.0000000000957609
136      -0.0000000000313429
137       0.0000000000403952
138       0.0000000000738677
139       0.0000000000148237
140       0.0000000000828601
141       0.0000000000175431
142      -0.0000000000886030
143      -0.0000000000292114
144      -0.0000000000620157
145      -0.0000000000687957
146      -0.0000000000784000
147       0.0000000001683001
148       0.0000000001573058
149       0.0000000000973985
150       0.0000000000894471
151       0.0000000001371357
152      -0.0000000002601082
153      -0.0000000002588271
154      -0.0000000001261159
155      -0.0000000000894046
156      -0.0000000001746105
157       0.0000000003175990
158       0.0000000003237144
159       0.0000000001277335
160       0.0000000000592194
161       0.0000000001606806
162      -0.0000000002925010
163      -0.0000000002951053
164      -0.0000000000882993
165      -0.0000000000338436
166      -0.0000000001090909
167       0.0000000001956802
168       0.0000000002028441
169       0.0000000000412385
170       0.0000000000188845
171       0.0000000000571802
172      -0.0000000000962949
173      -0.0000000001096519
174      -0.0000000000113226
175      -0.0000000000067579
176      -0.0000000000180086
177       0.0000000000285159
178       0.0000000000357040
179       0.0000001373096435
180      -0.0000000776577894
181       0.0000000958088596
182      -0.0000000926505797
183      -0.0000000926513199
184       0.0000000871946996
185       0.0000000306684604
186      -0.0000005172385030
187       0.0000003005952187
188      -0.0000003812409909
189       0.0000003227558789
190       0.0000003773376798
191      -0.0000004011259807
192      -0.0000001032104773
193       0.0000002124846446
194      -0.0000001110271633
195       0.0000001248498318
196      -0.0000001748512476
197      -0.0000001112373371
198       0.0000000498491618
199       0.0000000614456087
200      -0.0000014849387293
201       0.0000008680878405
202      -0.0000010841306255
203       0.0000009301908626
204       0.0000010735718647
205      -0.0000011342586140
206      -0.0000002954994089
207       0.0000003650177505
208      -0.0000002086252209
209       0.0000002576510351
210      -0.0000002412583949
211      -0.0000002510819370
212       0.0000002455206918
213       0.0000000781113493
214       0.0000001742906515
215      -0.0000001022722002
216       0.0000001249120219
217      -0.0000001117363896
218      -0.0000001240186094
219       0.0000001266045773
220       0.0000000350600267
221      -0.0000001687007568
222       0.0000000985605425
223      -0.0000001208742265
224       0.0000001085011604
225       0.0000001197103015
226      -0.0000001216911970
227      -0.0000000342349092
228       0.0000001153963715
229      -0.0000000674201160
230       0.0000000826077487
231      -0.0000000742711748
232      -0.0000000817798823
233       0.0000000830915286
234       0.0000000234268190
235      -0.0000000694449013
236       0.0000000406095163
237      -0.0000000496534270
238       0.0000000446869100
239       0.0000000491468070
240      -0.0000000499742659
241      -0.0000000140776482
242       0.0000000356760902
243      -0.0000000208609462
244       0.0000000255022431
245      -0.0000000229572547
246      -0.0000000252409625
247       0.0000000256673940
248       0.0000000072271297
249      -0.0000000117134357
250       0.0000000068470728
251      -0.0000000083733859
252       0.0000000075373350
253       0.0000000082878856
254      -0.0000000084275095
255      -0.0000000023713213
 Sym=     1a
 Ene= -2.07994384420760E+02
 Spin= Alpha
 Occup= 2.000000
  1       0.0000000000000107
  2      -0.0000000000000074
  3       0.0000000000000333
  4       0.0000000000000223
  5       0.0000000000000924
  6       0.0000000000002137
  7       0.0000000000004086
  8       0.0000000000012069
  9       0.0000000000021772
 10       0.0000000000063281
 11       0.0000000000119247
 12       0.0000000000320364
 13       0.0000000000636112
 14       0.0000000001515545
 15       0.0000000002869741
 16       0.0000000005526171
 17       0.0000000006904269
 18       0.0000000004072148
 19      -0.0000000011513762
 20      -0.0000000021001206
 21      -0.0000000012455655
 22       0.0000000000894503
 23      -0.0000000002166718
 24       0.0000000002722361
 25      -0.0000000002910573
 26       0.0000000001660672
 27       0.0000000002118117
 28      -0.0000000008812645
 29       0.0000000015544979
 30      -0.0000000017042216
 31       0.0000000011836752
 32      -0.0000000004046329
 33      -0.0000027724753926
 34       0.0000287634327483
 35      -0.0000129654084373
 36      -0.0000015147774157
 37       0.0000157152379660
 38      -0.0000070837962989
 39      -0.0000164670309572
 40       0.0001708395558173
 41      -0.0000770076680372
 42      -0.0000387744542276
 43       0.0004022707056631
 44      -0.0001813275366029
 45      -0.0001368202594620
 46       0.0014194609928758
 47      -0.0006398364348339
 48      -0.0004246676469854
 49       0.0044057719267152
 50      -0.0019859459255155
 51      -0.0012907146683073
 52       0.0133906984977604
 53      -0.0060359927025459
 54      -0.0036758364647698
 55       0.0381354663944516
 56      -0.0171899451301488
 57      -0.0094733677864686
 58       0.0982827617181167
 59      -0.0443019468117837
 60      -0.0203454503175593
 61       0.2110766546035333
 62      -0.0951449271546865
 63      -0.0314502966507689
 64       0.3262854394743697
 65      -0.1470764533904332
 66      -0.0266574757293052
 67       0.2765616349578663
 68      -0.1246629424779057
 69      -0.0091822087866276
 70       0.0952620965038649
 71      -0.0429403578165796
 72      -0.0003381544217909
 73       0.0035082186465279
 74      -0.0015813558905986
 75      -0.0001470527185962
 76       0.0015256349597415
 77      -0.0006877053317834
 78       0.0001015644571156
 79      -0.0010537063462942
 80       0.0004749760053776
 81      -0.0000696368919715
 82       0.0007224653408134
 83      -0.0003256636530588
 84       0.0000466239238920
 85      -0.0004837113181661
 86       0.0002180412292557
 87      -0.0000297228759881
 88       0.0003083672511728
 89      -0.0001390018685773
 90       0.0000171258977053
 91      -0.0001776767970576
 92       0.0000800908855433
 93      -0.0000079390248395
 94       0.0000823653320987
 95      -0.0000371275954808
 96       0.0000021759585419
 97      -0.0000225750072154
 98       0.0000101760747451
 99       0.0000000000000676
100       0.0000000000000569
101       0.0000000000000258
102       0.0000000000001025
103      -0.0000000000000863
104      -0.0000000000005353