[Molden Format]
[Title]
[Atoms] AU
Co     1    27  0.00000000000000E+00  0.00000000000000E+00  0.00000000000000E+00
Co     2    27  0.28345891869307E+01  0.00000000000000E+00  0.00000000000000E+00
[GTO]
           1 0
 d           3   1.00000000000000     
   2.83032749122080        1.71448916425323     
  0.887453373088594       0.781034818910538     
  0.345684960408215       0.104059494248144     
 s           4   1.00000000000000     
  0.695111995148816      -6.080424419252015E-002
  0.356584305170521      -9.357916970744833E-002
  0.108935840076917       0.120409217624872     
  6.065357920736102E-002  3.064255297573086E-002
 p           4   1.00000000000000     
   2.51737953400177      -2.727839620888233E-002
  0.729880924002924      -5.782541533360520E-002
  0.127388852406668       6.998682569851342E-002
  6.250867267915186E-002  1.834609940635387E-002
 
           2 0
 d           3   1.00000000000000     
   2.83032749122080        1.71448916425323     
  0.887453373088594       0.781034818910538     
  0.345684960408215       0.104059494248144     
 s           4   1.00000000000000     
  0.695111995148816      -6.080424419252015E-002
  0.356584305170521      -9.357916970744833E-002
  0.108935840076917       0.120409217624872     
  6.065357920736102E-002  3.064255297573086E-002
 p           4   1.00000000000000     
   2.51737953400177      -2.727839620888233E-002
  0.729880924002924      -5.782541533360520E-002
  0.127388852406668       6.998682569851342E-002
  6.250867267915186E-002  1.834609940635387E-002
 
[MO]
Sym=     1a
Ene=   -1.71427177502633     
Spin= Alpha
Occup=     2.00000000
           1  3.766258852531577E-003
           2 -1.883129426266266E-003
           3 -1.883129426265311E-003
           4  6.521689545154934E-017
           5  1.236147879785233E-015
           6  4.177554734903973E-016
           7 -0.550820042331779     
           8  3.777609780877576E-002
           9  5.126257564425755E-017
          10  3.504296969010970E-018
          11  3.766254504693633E-003
          12 -1.883127252348781E-003
          13 -1.883127252344853E-003
          14  1.254543145372207E-016
          15  3.324240029089885E-017
          16  2.193306731085558E-016
          17 -0.550819718371987     
          18 -3.777609958397558E-002
          19 -1.403925511425293E-016
          20 -1.763240784196371E-017
Sym=     2a
Ene=   -1.52540851425138     
Spin= Alpha
Occup=     2.00000000
           1  1.955637617433897E-015
           2 -7.412433308065758E-015
           3  5.456795690631860E-015
           4  0.625213185783925     
           5  3.196955685185912E-002
           6 -6.233146248950095E-015
           7  3.172691191413257E-016
           8 -1.998964665398092E-016
           9 -5.584463054351715E-003
          10 -2.855550925071402E-004
          11  1.098918426984755E-015
          12 -6.997291665411520E-015
          13  5.898373238426765E-015
          14 -0.625212149918293     
          15 -3.196950388406348E-002
          16 -1.480422196201328E-015
          17 -4.014974892166293E-016
          18 -3.144790576929023E-016
          19 -5.584505528591961E-003
          20 -2.855572643785309E-004
Sym=     3a
Ene=   -1.52540851425138     
Spin= Alpha
Occup=     2.00000000
           1 -2.184828881150498E-016
           2  4.719768180760179E-016
           3 -2.534939299609680E-016
           4 -3.196955685185990E-002
           5  0.625213185783924     
           6  3.285650679695552E-016
           7  4.747316681827007E-016
           8 -7.946926358972193E-017
           9  2.855550925071415E-004
          10 -5.584463054351811E-003
          11 -9.520603903759674E-017
          12  4.714224384882538E-016
          13 -3.762163994506571E-016
          14  3.196950388406272E-002
          15 -0.625212149918295     
          16  9.458063829755624E-017
          17  7.349974423504271E-016
          18  3.871402878845888E-016
          19  2.855572643785165E-004
          20 -5.584505528591911E-003
Sym=     4a
Ene=   -1.50532853473004     
Spin= Alpha
Occup=     2.00000000
           1  0.663381248854416     
           2 -0.331690624427139     
           3 -0.331690624427277     
           4 -1.364746274189568E-015
           5  1.125330493408220E-016
           6 -2.218767396175227E-014
           7  1.617060857675882E-003
           8  1.485034450435076E-002
           9  6.558807061126339E-017
          10  1.030570150849196E-018
          11  0.663379313923362     
          12 -0.331689656961619     
          13 -0.331689656961743     
          14  1.422093545455065E-015
          15 -1.728548904538416E-017
          16 -2.895905082277531E-014
          17  1.617028682025279E-003
          18 -1.485033934038858E-002
          19  4.435460786457308E-017
          20 -4.184684919541341E-018
Sym=     5a
Ene=   -1.49711383608139     
Spin= Alpha
Occup=     2.00000000
           1  6.877831637552845E-014
           2 -0.404412782950972     
           3  0.404412782950903     
           4 -4.187237987254875E-015
           5  3.819965827470380E-019
           6  0.487324051715905     
           7  1.314053033052431E-015
           8  2.203098814490545E-015
           9 -1.189049108981589E-016
          10 -4.707112920420153E-018
          11  7.005507285384738E-014
          12 -0.404411151071461     
          13  0.404411151071391     
          14 -2.765753784792481E-016
          15 -7.330780814239384E-017
          16  0.487322085274276     
          17  9.465076096898283E-016
          18 -1.388139512395752E-015
          19  9.494842403823733E-017
          20  6.808033852440425E-018
Sym=     6a
Ene=   -1.49711383608139     
Spin= Alpha
Occup=     2.00000000
           1  3.616551502716447E-014
           2 -0.422035008661150     
           3  0.422035008661114     
           4 -6.910015978513703E-015
           5  3.608768990096092E-017
           6 -0.466975658200894     
           7  8.816732066652122E-016
           8  1.287164819174791E-015
           9  9.997444886943109E-017
          10  3.528685949286384E-019
          11  3.577693696854567E-014
          12 -0.422033305672751     
          13  0.422033305672715     
          14  7.667555143270097E-015
          15 -8.238366905857153E-017
          16 -0.466973773868754     
          17  7.185071817263659E-016
          18 -6.531672189578495E-017
          19 -7.520742460882080E-017
          20  1.707606374741778E-018
Sym=     7a
Ene=   -1.45476522952819     
Spin= Alpha
Occup=     0.99997826
           1  1.693090112553364E-015
           2 -0.221111217709888     
           3  0.221111217709886     
           4 -3.108969196132652E-016
           5  3.026716142090890E-017
           6  0.699195812625070     
           7  2.224782857940255E-016
           8 -3.105155021998485E-016
           9  9.639876097497417E-017
          10 -2.045971233155589E-018
          11 -4.163336342344337E-015
          12  0.221111951296306     
          13 -0.221111951296301     
          14 -3.746227159405201E-015
          15  4.022898854927031E-017
          16 -0.699198132365137     
          17 -4.105769551807011E-016
          18  3.324396451840648E-016
          19 -1.530891942123587E-016
          20  7.191284053323227E-019
Sym=     8a
Ene=   -1.45476522952819     
Spin= Alpha
Occup=     0.99997826
           1 -2.231548279496565E-014
           2  0.605521335953028     
           3 -0.605521335953006     
           4 -2.352808909767613E-015
           5 -4.745536244011839E-017
           6  0.255317242131305     
           7 -5.824334070592130E-016
           8  2.775557561562891E-016
           9 -4.444427667242427E-017
          10 -3.237211855769449E-019
          11  1.421085471520200E-014
          12 -0.605523344906849     
          13  0.605523344906834     
          14 -3.447223138670544E-015
          15 -1.083596211852568E-016
          16 -0.255318089203923     
          17  1.788628515577560E-015
          18  4.239618290319985E-016
          19 -1.174387108491942E-016
          20  9.189261224844342E-019
Sym=     9a
Ene=   -1.44456513253387     
Spin= Alpha
Occup=     0.00004347
           1  0.761309981996677     
           2 -0.380654990998323     
           3 -0.380654990998354     
           4 -3.847118163302834E-016
           5 -1.519701608278987E-018
           6  4.018469420106240E-015
           7  1.373265702187231E-002
           8  5.741288866712685E-003
           9 -2.015976891172428E-017
          10 -5.897694716168828E-019
          11 -0.761311667275206     
          12  0.380655833637587     
          13  0.380655833637619     
          14  3.413585264360507E-016
          15 -4.465774919078005E-017
          16 -2.885348883213524E-015
          17 -1.373266199717494E-002
          18  5.741324732682304E-003
          19 -3.238328827371177E-017
          20  6.059936493829990E-019
Sym=    10a
Ene=   -1.39616220892164     
Spin= Alpha
Occup=     0.00000000
           1  2.543961292264851E-017
           2  2.545073693872830E-017
           3 -5.089034986137681E-017
           4 -2.558532579775492E-003
           5  0.832797754636629     
           6 -6.443909880646843E-018
           7  7.757592563720495E-016
           8 -2.317397646736811E-016
           9 -7.479039451808208E-006
          10  2.434413894720649E-003
          11 -8.136284773774861E-017
          12 -4.781541358808280E-017
          13  1.291782613258314E-016
          14 -2.558534952428215E-003
          15  0.832798526930483     
          16  1.289677537536569E-017
          17 -1.658169718043998E-016
          18 -6.772578384919376E-016
          19  7.479063228133332E-006
          20 -2.434421633863465E-003
Sym=    11a
Ene=   -1.39616220892164     
Spin= Alpha
Occup=     0.00000000
           1  2.398461788610444E-016
           2  6.515194845966502E-016
           3 -8.913656634576946E-016
           4  0.832797754636628     
           5  2.558532579776030E-003
           6  3.623339551525610E-015
           7 -5.987006024680760E-016
           8  4.620685954621607E-016
           9  2.434413894720419E-003
          10  7.479039451814311E-006
          11  1.951117556255267E-016
          12 -2.313470412346244E-015
          13  2.118358656720718E-015
          14  0.832798526930484     
          15  2.558534952427674E-003
          16 -1.262134096414445E-015
          17  7.832213551670525E-016
          18  6.047223067515161E-016
          19 -2.434421633863299E-003
          20 -7.479063228104377E-006
Sym=    12a
Ene=   -1.15375066211413     
Spin= Alpha
Occup=     0.00000000
           1 -2.398362487445676E-002
           2  1.199181243722813E-002
           3  1.199181243722863E-002
           4 -4.686629626332493E-016
           5  6.259048482322175E-016
           6 -7.914588036463455E-017
           7 -0.530992181691638     
           8  0.407751075727633     
           9 -4.030882959290650E-017
          10  6.701336096163769E-018
          11  2.398363780909686E-002
          12 -1.199181890454680E-002
          13 -1.199181890455005E-002
          14 -1.160216510368868E-015
          15  7.561310985582797E-016
          16  3.307840052130874E-016
          17  0.530992273450550     
          18  0.407750952030565     
          19 -2.426742908645067E-016
          20 -6.744950012222071E-018
Sym=    13a
Ene=  -0.983156989335638     
Spin= Alpha
Occup=     0.00000000
           1  8.124138456189746E-018
           2  1.133039997977605E-017
           3 -1.945453843596580E-017
           4 -5.159057891650368E-002
           5  2.033214052239261E-002
           6  7.564818786847662E-018
           7 -5.322330478950821E-018
           8  2.242697275451793E-016
           9  0.509178796833247     
          10 -0.200670259292724     
          11 -7.723934201402221E-017
          12 -8.648154661861061E-017
          13  1.637208886326328E-016
          14  5.159063401979597E-002
          15 -2.033216223891392E-002
          16 -6.696150497105600E-017
          17 -1.400896843507200E-017
          18  9.191851486616916E-017
          19  0.509178624061928     
          20 -0.200670191202563     
Sym=    14a
Ene=  -0.983156989335637     
Spin= Alpha
Occup=     0.00000000
           1 -5.861215971566874E-018
           2 -5.010021978371422E-018
           3  1.087123794993830E-017
           4  2.033214052239271E-002
           5  5.159057891650339E-002
           6 -3.696560848091382E-018
           7  3.540758414408439E-017
           8 -8.408151633655305E-017
           9 -0.200670259292723     
          10 -0.509178796833249     
          11  3.283221819343923E-017
          12  3.342820990847569E-017
          13 -6.626042810191492E-017
          14 -2.033216223891368E-002
          15 -5.159063401979647E-002
          16  2.523867665519341E-017
          17 -3.015987278883151E-017
          18 -2.585216840914243E-017
          19 -0.200670191202563     
          20 -0.509178624061927     
Sym=    15a
Ene=  -0.683073096235559     
Spin= Alpha
Occup=     0.00000000
           1  3.736077002247135E-002
           2 -1.868038501123570E-002
           3 -1.868038501123565E-002
           4 -1.385895274352609E-017
           5 -1.205562615663543E-016
           6  3.950114982543318E-017
           7 -0.238695189193232     
           8  0.866650103016902     
           9 -1.432638589904787E-016
          10 -1.562811645975451E-017
          11  3.736076980802158E-002
          12 -1.868038490401057E-002
          13 -1.868038490401100E-002
          14  1.243080866217867E-017
          15 -3.893438840674150E-017
          16 -3.791558949565670E-016
          17 -0.238695305447306     
          18 -0.866650148289428     
          19  8.911126930108603E-017
          20 -3.766637549967416E-018
Sym=    16a
Ene=  -0.291937650488441     
Spin= Alpha
Occup=     0.00000000
           1  2.856777069430030E-018
           2  2.960931228174796E-019
           3 -3.152870192247510E-018
           4  0.238648862454048     
           5  0.111036598984583     
           6 -8.598284133651895E-018
           7  4.867944339236554E-017
           8  1.280509007037739E-016
           9   1.19948675183482     
          10  0.558087426360342     
          11  5.057148307993652E-018
          12 -6.009030689944175E-018
          13  9.518823819505235E-019
          14  0.238648872355001     
          15  0.111036603591218     
          16  1.092853441319668E-016
          17 -7.431015336770038E-017
          18 -1.266579028893992E-016
          19  -1.19948682131263     
          20 -0.558087458686412     
Sym=    17a
Ene=  -0.291937650488441     
Spin= Alpha
Occup=     0.00000000
           1 -6.136094529358273E-018
           2  3.717392979824390E-020
           3  6.098920599560029E-018
           4 -0.111036598984583     
           5  0.238648862454048     
           6  5.315319541832412E-018
           7 -1.344245640512541E-017
           8 -9.399101404010383E-017
           9 -0.558087426360342     
          10   1.19948675183482     
          11 -5.586408094577178E-018
          12  2.735944733463231E-018
          13  2.850463361113947E-018
          14 -0.111036603591218     
          15  0.238648872355001     
          16 -3.245546633823557E-017
          17  8.400354728376880E-017
          18  1.242335350568393E-016
          19  0.558087458686412     
          20  -1.19948682131263     
