[Molden Format]
[Title]
[Atoms] AU
O      1     8  0.74637209059875E+00  0.13189574845013E+02  0.15176352542229E+01
C      2     6  0.63595634366942E+00  0.14899635093551E+02  0.36190136261284E+01
H      3     1  0.13524643530599E+01  0.14207046096618E+02  0.52208604833488E+01
H      4     1  0.87986865667205E+00  0.16707989660189E+02  0.32446192553630E+01
C      5     6 -0.16638971644206E+01  0.13726093995025E+02  0.26691821656223E+01
H      6     1 -0.28252354696919E+01  0.14622204072005E+02  0.16194099338391E+01
H      7     1 -0.23814868101481E+01  0.12330534494762E+02  0.35818775136976E+01
[GTO]
           1 0
 s           4   1.00000000000000     
   69.1379619061966      -0.204787563700778     
   11.9061291327073      -0.249970231368273     
  0.956708277443407       0.400258802406396     
  0.364625204960737       0.159522066676936     
 p           4   1.00000000000000     
   8.21241932577816        1.13215567991868     
   2.12935769970981        1.04768407822548     
  0.750664482023609       0.549565082171590     
  0.298852465432831       8.290848659276662E-002
 
           2 0
 s           4   1.00000000000000     
   51.0493630955799      -0.163120632101274     
   8.79112274068875      -0.199110245810007     
  0.706404222589298       0.318820477536558     
  0.269228134134116       0.127065041842404     
 p           4   1.00000000000000     
   5.82636561408000       0.737164515452096     
   1.51068960187200       0.682163716148503     
  0.532564832880000       0.357830539292537     
  0.212023236906000       5.398303027584788E-002
 
           3 0
 s           3   1.00000000000000     
   3.37022769753360       0.273591105889083     
  0.613891182214980       0.264605406538605     
  0.166142911484160       8.246594753408230E-002
 
           4 0
 s           3   1.00000000000000     
   3.37022769753360       0.273591105889083     
  0.613891182214980       0.264605406538605     
  0.166142911484160       8.246594753408230E-002
 
           5 0
 s           4   1.00000000000000     
   51.0493630955799      -0.163120632101274     
   8.79112274068875      -0.199110245810007     
  0.706404222589298       0.318820477536558     
  0.269228134134116       0.127065041842404     
 p           4   1.00000000000000     
   5.82636561408000       0.737164515452096     
   1.51068960187200       0.682163716148503     
  0.532564832880000       0.357830539292537     
  0.212023236906000       5.398303027584788E-002
 
           6 0
 s           3   1.00000000000000     
   3.37022769753360       0.273591105889083     
  0.613891182214980       0.264605406538605     
  0.166142911484160       8.246594753408230E-002
 
           7 0
 s           3   1.00000000000000     
   3.37022769753360       0.273591105889083     
  0.613891182214980       0.264605406538605     
  0.166142911484160       8.246594753408230E-002
 
[MO]
Sym=     1a
Ene=  -0.717412836047212     
Spin= Alpha
Occup=     2.00000000
           1 -0.560976035834149     
           2  9.979488451399504E-002
           3 -8.763572217703776E-002
           4 -0.127209111038775     
           5 -0.270091681568359     
           6  5.281574458484013E-002
           7  0.112383134301851     
           8  0.125546673781972     
           9 -3.597537219905322E-002
          10 -3.622894326140587E-002
          11 -0.271700883682269     
          12 -0.170888256924081     
          13 -2.751138630870348E-003
          14  3.178386053839615E-002
          15 -4.009298203446546E-002
          16 -4.077959902155518E-002
Sym=     2a
Ene=  -0.639780530008325     
Spin= Alpha
Occup=     2.00000000
           1  0.616463711241671     
           2  0.153770394580951     
           3 -0.103579620310303     
           4 -0.159071972199038     
           5 -0.253306430671962     
           6  0.138047596184860     
           7 -5.704320980511993E-002
           8 -9.767624339623106E-002
           9 -0.114496677231496     
          10 -0.119702266530159     
          11 -0.325148382784273     
          12  6.645908977505890E-002
          13 -8.362494187551631E-002
          14 -0.117450292440283     
          15 -0.154515025630718     
          16 -0.156192178470786     
Sym=     3a
Ene=  -0.623769254466819     
Spin= Alpha
Occup=     2.00000000
           1 -6.815726266425930E-002
           2  0.236316788972650     
           3  0.151945487001626     
           4  0.135903064394150     
           5  0.389953926416602     
           6  0.143029700755830     
           7  5.294135595974502E-002
           8  3.313247209192906E-002
           9  0.194095505323911     
          10  0.197426151729872     
          11 -0.322815742249001     
          12  0.125912305172161     
          13  0.112368410050062     
          14  0.110203358677804     
          15 -0.187340421608414     
          16 -0.182063579799723     
Sym=     4a
Ene=  -0.577913339695454     
Spin= Alpha
Occup=     2.00000000
           1 -3.282201862000287E-003
           2  5.518765788518475E-002
           3 -0.301086208417099     
           4  0.253601359301850     
           5 -2.830516096863645E-003
           6  5.038281098793882E-002
           7 -0.292278616272006     
           8  0.233249977510623     
           9  0.198834743806407     
          10 -0.201547979407434     
          11 -1.865372339353136E-003
          12  4.961157024870735E-002
          13 -0.286428024218412     
          14  0.239699002957937     
          15 -0.195320333331338     
          16  0.199310811925385     
Sym=     5a
Ene=  -0.550517451132706     
Spin= Alpha
Occup=     2.00000000
           1  0.347244023824694     
           2  0.293367192648740     
           3 -0.231927211625076     
           4 -0.333811091949945     
           5  9.115867854837012E-002
           6  0.186717202294392     
           7  0.195608668187010     
           8  0.203767737472273     
           9  0.191096196505959     
          10  0.193120797767247     
          11  5.931196087312798E-002
          12 -0.329383516642563     
          13 -5.897838110185809E-002
          14  1.555693786667643E-003
          15  0.183665394891023     
          16  0.180090318351507     
Sym=     6a
Ene=  -0.519013505153248     
Spin= Alpha
Occup=     2.00000000
           1  1.857574541488149E-002
           2 -0.562878361944503     
           3 -0.318172685929486     
           4 -0.253667202150863     
           5  5.094058662269992E-002
           6 -0.124438731676376     
           7  0.215288349765210     
           8  0.280330776627937     
           9  0.129147265982616     
          10  0.149843673099298     
          11 -5.031884238098097E-002
          12  0.268517828331740     
          13 -0.119419650422916     
          14 -0.178688657921729     
          15 -0.143356377349727     
          16 -0.123438809010974     
Sym=     7a
Ene=  -0.488004204127089     
Spin= Alpha
Occup=     2.00000000
           1  2.735353147697397E-002
           2  4.572850553679987E-002
           3 -1.710211122486799E-002
           4 -2.280912198075969E-002
           5 -3.712253177893447E-003
           6 -0.113703595629999     
           7  0.310605355460109     
           8 -0.250008024242476     
           9 -0.340058685501848     
          10  0.304516749416870     
          11  5.149749238673996E-003
          12  5.862797642178390E-002
          13 -0.272761541896097     
          14  0.317637590746603     
          15 -0.323825171190568     
          16  0.319207414858030     
Sym=     8a
Ene=  -0.471142868995680     
Spin= Alpha
Occup=     2.00000000
           1  0.186207111419452     
           2  0.233764565467039     
           3 -0.179054993847634     
           4 -0.270977297681336     
           5  1.342244090343041E-002
           6 -0.532304497704272     
           7 -3.183986107229376E-002
           8  0.161485253835073     
           9 -4.201233556138732E-002
          10 -0.120236760760818     
          11  5.020656161187784E-002
          12  8.473849764080420E-002
          13  0.407879121364388     
          14  0.387744266159967     
          15 -3.579276650490990E-002
          16 -0.109024002869525     
Sym=     9a
Ene=  -0.424006313544026     
Spin= Alpha
Occup=     2.00000000
           1 -1.130176825794122E-003
           2 -0.125137479368671     
           3  0.696386701060163     
           4 -0.581734350878618     
           5  1.742217772388764E-004
           6  2.447205403128677E-002
           7 -0.115874369401422     
           8  9.891327669924317E-002
           9  0.191597853369760     
          10 -0.185004892682231     
          11 -7.905860608138281E-004
          12  2.328887700780176E-002
          13 -0.127960638958361     
          14  0.104187982446823     
          15 -0.184509662329234     
          16  0.188956002069928     
Sym=    10a
Ene=  -0.107832118420804     
Spin= Alpha
Occup=     0.00000000
           1  8.997102073264101E-003
           2 -0.559240431445829     
           3 -0.283309494100183     
           4 -0.215770578609784     
           5  1.974742864093411E-002
           6  0.625935565562438     
           7 -0.175415314028376     
           8 -0.374808011164579     
           9 -4.990439007474559E-005
          10 -2.141261939390583E-002
          11  2.254304752299717E-002
          12 -0.150164064247589     
          13  0.467830002487771     
          14  0.578749400970703     
          15 -2.361899735970902E-002
          16 -6.631868379958746E-003
Sym=    11a
Ene=   3.897959727475065E-002
Spin= Alpha
Occup=     0.00000000
           1 -0.630652110165678     
           2  0.451010785813001     
           3 -0.417161639413855     
           4 -0.593099166535260     
           5  0.381989868379886     
           6  0.148828966912580     
           7 -0.307226411800980     
           8 -0.439391334717591     
           9 -4.585771029946975E-002
          10 -7.273436916452805E-002
          11  0.347465592499356     
          12  0.464072681191123     
          13 -0.159861082695690     
          14 -0.294563792912807     
          15 -2.738438936988661E-002
          16 -1.897378929762445E-002
Sym=    12a
Ene=   0.210327069173654     
Spin= Alpha
Occup=     0.00000000
           1  1.196124828380396E-002
           2 -0.275068819773762     
           3 -0.127906861762883     
           4 -0.115382411018424     
           5  0.993232032165045     
           6 -0.385248240060060     
           7 -0.249376915798925     
           8 -0.159058230118027     
           9 -0.356110252940016     
          10 -0.290576292286358     
          11 -0.854729612377575     
          12 -0.504990461490353     
          13 -0.227315579180273     
          14 -0.104155760626869     
          15  0.246904464604010     
          16  0.174305744697902     
Sym=    13a
Ene=   0.318945341181963     
Spin= Alpha
Occup=     0.00000000
           1  0.107014819422963     
           2  5.036925812779776E-002
           3  0.115478733607281     
           4  5.179742943462280E-002
           5  0.695662735849614     
           6  0.519678711029021     
           7  0.317339805920665     
           8  0.693798981518085     
           9 -0.934640094905127     
          10 -0.519201138339128     
          11  0.575950834374978     
          12  6.286551172368642E-002
          13 -6.475172816877214E-002
          14  0.135082487561781     
          15 -9.609297463807291E-002
          16 -0.357408828286072     
Sym=    14a
Ene=   0.369020554386548     
Spin= Alpha
Occup=     0.00000000
           1  4.072074223819550E-002
           2  3.142973911656393E-002
           3 -0.111647708073989     
           4  0.148375610387464     
           5  0.243801904849304     
           6 -5.685174770411112E-003
           7  0.819864532538121     
           8 -0.360956777230021     
           9  0.491595618634532     
          10 -0.954020252758752     
          11  6.333758155036882E-002
          12 -5.874667089066675E-002
          13  0.487380659467249     
          14 -0.400674737115163     
          15 -0.571563024472762     
          16  0.565599462958032     
Sym=    15a
Ene=   0.444215537795646     
Spin= Alpha
Occup=     0.00000000
           1 -4.516499452303450E-002
           2  8.339767108623036E-002
           3  3.807380396840435E-002
           4  1.816424307525089E-002
           5 -0.110770092262867     
           6  0.322699795802169     
           7  0.158490839100891     
           8  0.307435772460506     
           9 -0.274507499421515     
          10 -0.101107905260893     
          11 -0.780633698869310     
          12  0.947281957597935     
          13  0.306007574021476     
          14  8.467198783396919E-002
          15  0.800419581206127     
          16  0.849771524994391     
Sym=    16a
Ene=   0.594552247879198     
Spin= Alpha
Occup=     0.00000000
           1  5.769286873798834E-003
           2  5.459970337697074E-003
           3  2.457137748784808E-002
           4 -3.225667566910407E-003
           5  5.602265956945514E-003
           6 -6.923249564929070E-002
           7  0.664156807067650     
           8 -0.452182951264993     
           9  0.529407831122082     
          10 -0.603606703370090     
          11 -4.526617595486087E-002
          12  0.231250025936425     
          13 -0.756273163207646     
          14  0.678380484185872     
          15  0.851337614590668     
          16 -0.731096335845097     
