[Molden Format]
[Title]
[Atoms] AU
F      1     9  0.00000000000000E+00  0.00000000000000E+00  0.00000000000000E+00
F      2     9  0.28345891869307E+01  0.00000000000000E+00  0.00000000000000E+00
[GTO]
           1 0
 s           4   1.00000000000000     
   67.8191594740697      -0.201850789245403     
   11.6790204412661      -0.246385510808000     
  0.938459125048083       0.394518855091218     
  0.357670001280168       0.157234426148285     
 p           4   1.00000000000000     
   9.58240403549692        1.37296780219284     
   2.48457427772447        1.27052889614703     
  0.875889317934415       0.666458841672068     
  0.348706630431394       0.100543312761176     
 
           2 0
 s           4   1.00000000000000     
   67.8191594740697      -0.201850789245403     
   11.6790204412661      -0.246385510808000     
  0.938459125048083       0.394518855091218     
  0.357670001280168       0.157234426148285     
 p           4   1.00000000000000     
   9.58240403549692        1.37296780219284     
   2.48457427772447        1.27052889614703     
  0.875889317934415       0.666458841672068     
  0.348706630431394       0.100543312761176     
 
[MO]
Sym=     1a
Ene=  -0.897646716145957     
Spin= Alpha
Occup=     2.00000000
           1  0.663937398814549     
           2  2.545432603661048E-002
           3  4.061321729232654E-018
           4  3.724818693037835E-017
           5  0.663937400718737     
           6 -2.545432649038876E-002
           7 -6.513051112440339E-017
           8  0.000000000000000E+000
Sym=     2a
Ene=  -0.842666802245727     
Spin= Alpha
Occup=     2.00000000
           1  0.720371361595485     
           2 -0.125962124605341     
           3 -9.247347234192140E-017
           4 -3.633689187883750E-017
           5 -0.720371359960532     
           6 -0.125962124081476     
           7  1.476465249152279E-016
           8  0.000000000000000E+000
Sym=     3a
Ene=  -0.631302393340419     
Spin= Alpha
Occup=     2.00000000
           1 -0.123854219969762     
           2  0.650002344017620     
           3 -1.464539893966840E-015
           4 -6.664428998951076E-018
           5 -0.123854220292471     
           6 -0.650002345086695     
           7 -7.719940432151286E-016
           8  0.000000000000000E+000
Sym=     4a
Ene=  -0.603526529165660     
Spin= Alpha
Occup=     2.00000000
           1  3.485192915750860E-017
           2 -1.584487146508401E-015
           3 -0.650158032759708     
           4 -0.218966336288405     
           5  3.975257150895284E-016
           6  5.786617833624958E-016
           7 -0.650158035627483     
           8 -0.218966337254242     
Sym=     5a
Ene=  -0.603526529165660     
Spin= Alpha
Occup=     2.00000000
           1 -8.058513904607251E-018
           2  5.096040040236093E-016
           3  0.218966336288405     
           4 -0.650158032759705     
           5 -7.407112740804260E-017
           6 -1.768149548743821E-016
           7  0.218966337254241     
           8 -0.650158035627487     
Sym=     6a
Ene=  -0.560667586207987     
Spin= Alpha
Occup=     2.00000000
           1  1.083309140966966E-016
           2  5.132674156655809E-016
           3  0.635649235550369     
           4 -0.359446599441985     
           5 -2.435277811048539E-016
           6  1.219464971973220E-018
           7 -0.635649233075734     
           8  0.359446598042628     
Sym=     7a
Ene=  -0.560667586207987     
Spin= Alpha
Occup=     2.00000000
           1  6.461475722659287E-017
           2  3.133276903416880E-016
           3  0.359446599441983     
           4  0.635649235550372     
           5 -2.660271185477562E-016
           6  3.915184337869535E-018
           7 -0.359446598042629     
           8 -0.635649233075732     
Sym=     8a
Ene=  -0.441645400453133     
Spin= Alpha
Occup=     0.00000000
           1  0.270169495497207     
           2  0.800768122440905     
           3 -5.352431492948927E-016
           4 -1.506246502008064E-017
           5 -0.270169495029140     
           6  0.800768121641093     
           7 -3.186245081823520E-016
           8  0.000000000000000E+000
