[Molden Format]
[Title]
 Molden file created by orca_2mkl for BaseName=.\F_full

[Atoms] AU
F    1   9          0.0000000000         0.0000000000         0.0000 
[GTO]
  1 0
s   5 1.0 
     2894.8325990000        -1.5046183743
      435.4193912000        -2.7151913889
       98.8433288660        -4.0084234848
       27.4851980010        -4.0066489820
        8.5405498171        -1.5924531440
s   1 1.0 
        1.0654578038         0.7474158152
s   1 1.0 
        0.3324734675         0.3120526226
p   3 1.0 
       22.6966339240        -4.5745381020
        4.9872339257        -3.6157678437
        1.3491613954        -1.5230827082
p   1 1.0 
        0.3482988198         0.3813994755
d   1 1.0 
        1.4000000000         5.1368176128

[5D]
[7F]
[9G]
[MO]
 Sym=     1a
 Ene= -2.38874171913038E+01
 Spin= Alpha
 Occup= 2.000000
  1       0.9892597421308764
  2      -0.0352724387043321
  3       0.0119535235087849
  4       0.0000000000000205
  5       0.0000000000000183
  6       0.0000000000000216
  7      -0.0000000000000158
  8      -0.0000000000000156
  9      -0.0000000000000167
 10      -0.0000000227633376
 11       0.0000000000000002
 12      -0.0000000000000000
 13      -0.0000000190015931
 14      -0.0000000000000001
 Sym=     1a
 Ene= -4.92198894792419E-01
 Spin= Alpha
 Occup= 2.000000
  1       0.3061441132434404
  2       0.5793014649686515
  3       0.5210009955273844
  4      -0.0000000000054963
  5      -0.0000000000058142
  6      -0.0000000000052894
  7       0.0000000000046493
  8       0.0000000000049130
  9       0.0000000000044775
 10       0.0000003871526440
 11      -0.0000000000000006
 12      -0.0000000000000001
 13       0.0000003300875913
 14      -0.0000000000000007
 Sym=     1a
 Ene= 1.99512056945800E-01
 Spin= Alpha
 Occup= 2.000000
  1      -0.0000000000028095
  2      -0.0000000000053697
  3      -0.0000000000048347
  4       0.0000000204928009
  5      -0.6267696426534947
  6       0.0000000167915418
  7      -0.0000000173282069
  8       0.5299838700713274
  9      -0.0000000141984704
 10      -0.0000000000000019
 11       0.0000000000000000
 12      -0.0000000000000036
 13      -0.0000000000000035
 14      -0.0000000000000031
 Sym=     1a
 Ene= 1.99512130565225E-01
 Spin= Alpha
 Occup= 2.000000
  1       0.0000000000026536
  2       0.0000000000050793
  3       0.0000000000045713
  4       0.6267711892143495
  5       0.0000000204927471
  6      -0.0000001380870189
  7      -0.5299822325899279
  8      -0.0000000173282565
  9       0.0000001167626187
 10       0.0000000000000020
 11       0.0000000000000033
 12      -0.0000000000000001
 13      -0.0000000000000033
 14       0.0000000000000030
 Sym=     1a
 Ene= 1.99512168541939E-01
 Spin= Alpha
 Occup= 2.000000
  1      -0.0000000000025514
  2      -0.0000000000048878
  3      -0.0000000000044032
  4      -0.0000001380868345
  5      -0.0000000167914834
  6      -0.6267720300023696
  7       0.0000001167628145
  8       0.0000000141985415
  9       0.5299813423716642
 10       0.0000000000000036
 11      -0.0000000000000031
 12      -0.0000000000000031
 13       0.0000000000000000
 14      -0.0000000000000000
 Sym=     1a
 Ene= 1.51339560516086E+00
 Spin= Alpha
 Occup= 0.000000
  1      -0.3377066385756483
  2      -1.6386016700133121
  3       1.5651631253704303
  4       0.0000000004014529
  5       0.0000000004022718
  6       0.0000000003552781
  7       0.0000000004250566
  8       0.0000000004259229
  9       0.0000000003761703
 10      -0.0000000038097569
 11      -0.0000000000003038
 12      -0.0000000000005197
 13      -0.0000000031616441
 14      -0.0000000000006120
 Sym=     1a
 Ene= 1.61336303872486E+00
 Spin= Alpha
 Occup= 0.000000
  1      -0.0000000001412493
  2      -0.0000000006853595
  3       0.0000000006546410
  4       0.0000000818751354
  5      -0.9617819528513949
  6       0.0000000429027726
  7       0.0000000866885602
  8      -1.0183230367849145
  9       0.0000000454250669
 10       0.0000000000000033
 11      -0.0000000000000051
 12       0.0000000000000055
 13       0.0000000000000052
 14      -0.0000000000000102
 Sym=     1a
 Ene= 1.61336311749513E+00
 Spin= Alpha
 Occup= 0.000000
  1       0.0000000001409603
  2       0.0000000006839631
  3      -0.0000000006533104
  4       0.9617809449937800
  5       0.0000000818751956
  6      -0.0000005613801745
  7       1.0183238890064688
  8       0.0000000866884623
  9      -0.0000005943842305
 10      -0.0000000000000046
 11      -0.0000000000000151
 12       0.0000000000000054
 13       0.0000000000000176
 14       0.0000000000000031
 Sym=     1a
 Ene= 1.61336315876702E+00
 Spin= Alpha
 Occup= 0.000000
  1      -0.0000000001247471
  2      -0.0000000006052987
  3       0.0000000005781734
  4      -0.0000005613804893
  5      -0.0000000429028892
  6      -0.9617803970704624
  7      -0.0000005943839568
  8      -0.0000000454250580
  9      -1.0183243523161993
 10       0.0000000000000049
 11      -0.0000000000000197
 12      -0.0000000000000025
 13       0.0000000000000046
 14      -0.0000000000000060
 Sym=     1a
 Ene= 3.63133595839804E+00
 Spin= Alpha
 Occup= 0.000000
  1      -0.0000001116517455
  2      -0.0000002644856376
  3      -0.0000002237500511
  4      -0.0000000000000125
  5       0.0000000000000035
  6       0.0000000000000067
  7      -0.0000000000000165
  8       0.0000000000000082
  9       0.0000000000000054
 10       0.3431614209895124
 11      -0.0000000253697485
 12      -0.0000000698132480
 13       0.9392764444742728
 14      -0.0000001642907548
 Sym=     1a
 Ene= 3.63133597281472E+00
 Spin= Alpha
 Occup= 0.000000
  1       0.0000000000002216
  2       0.0000000000010381
  3      -0.0000000000009282
  4       0.0000000000000047
  5       0.0000000000000121
  6       0.0000000000000059
  7       0.0000000000000020
  8       0.0000000000000091
  9       0.0000000000000064
 10      -0.0000000059101032
 11       0.0000000390933756
 12       0.0000001943412071
 13      -0.0000001727527839
 14      -0.9999999999999647
 Sym=     1a
 Ene= 3.63133600867718E+00
 Spin= Alpha
 Occup= 0.000000
  1       0.0000000000001865
  2       0.0000000000008786
  3      -0.0000000000007931
  4       0.0000000000000045
  5      -0.0000000000000046
  6       0.0000000000000046
  7       0.0000000000000057
  8      -0.0000000000000096
  9       0.0000000000000004
 10      -0.0000000690543288
 11       0.0000000673734117
 12      -0.9999999999999748
 13      -0.0000000490978953
 14      -0.0000001943411951
 Sym=     1a
 Ene= 3.63133607685406E+00
 Spin= Alpha
 Occup= 0.000000
  1       0.0000000000001278
  2       0.0000000000005588
  3      -0.0000000000004240
  4      -0.0000000000000140
  5       0.0000000000000043
  6       0.0000000000000207
  7      -0.0000000000000184
  8       0.0000000000000048
  9       0.0000000000000182
 10      -0.0000003515758116
 11      -0.9999999999999299
 12      -0.0000000673733851
 13       0.0000001014371175
 14      -0.0000000390934039
 Sym=     1a
 Ene= 3.63133608043851E+00
 Spin= Alpha
 Occup= 0.000000
  1       0.0000000627905214
  2       0.0000001496496800
  3       0.0000001263627282
  4      -0.0000000000000081
  5      -0.0000000000000010
  6      -0.0000000000000065
  7      -0.0000000000000119
  8      -0.0000000000000020
  9      -0.0000000000000023
 10      -0.9392764444742457
 11       0.0000003650361829
 12       0.0000000480126356
 13       0.3431614209896242
 14      -0.0000000537308463
