[Molden Format]
[Title]
 Molden file created by orca_2mkl for BaseName=.\Sc_full

[Atoms] AU
Sc   1  21          0.0000000000         0.0000000000         0.0000000000 
[GTO]
  1 0
s   1 1.0 
  2715278.0000000000     47672.8172846849
s   1 1.0 
   406598.4000000000     11475.8362128811
s   1 1.0 
    92530.0400000000      3781.1347488979
s   1 1.0 
    26207.9200000000      1468.0285711800
s   1 1.0 
     8549.4290000000       633.6696761271
s   1 1.0 
     3085.9750000000       295.0899336985
s   1 1.0 
     1203.1720000000       145.5981576630
s   1 1.0 
      498.4869000000        75.1883240567
s   1 1.0 
      216.7360000000        40.2585735368
s   1 1.0 
       97.8747600000        22.1775274174
s   1 1.0 
       45.2043300000        12.4249634467
s   1 1.0 
       20.2118700000         6.7938345205
s   1 1.0 
        9.5747510000         3.8793209218
s   1 1.0 
        4.5403460000         2.2168014895
s   1 1.0 
        1.9956870000         1.1966838045
s   1 1.0 
        0.9422150000         0.6815890468
s   1 1.0 
        0.4178450000         0.3704004448
s   1 1.0 
        0.0957610000         0.1226878615
s   1 1.0 
        0.0513510000         0.0768814864
s   1 1.0 
        0.0238780000         0.0432920900
p   1 1.0 
     4609.8850000000     54144.2948697745
p   1 1.0 
     1092.1560000000      8949.4414871257
p   1 1.0 
      354.3368000000      2191.3432548548
p   1 1.0 
      134.8076000000       654.7613856081
p   1 1.0 
       56.6025800000       221.3020168372
p   1 1.0 
       25.3341000000        81.0162129476
p   1 1.0 
       11.7403300000        30.9770793556
p   1 1.0 
        5.5692590000        12.1951418732
p   1 1.0 
        2.5949580000         4.6946476691
p   1 1.0 
        1.1963510000         1.7834599416
p   1 1.0 
        0.5350590000         0.6522921917
p   1 1.0 
        0.2207760000         0.2157147856
d   1 1.0 
      110.2197000000     10688.6714195029
d   1 1.0 
       32.8004100000      1281.6186251599
d   1 1.0 
       12.3130000000       230.7314910593
d   1 1.0 
        5.0638190000        48.7311755418
d   1 1.0 
        2.2255470000        11.5607079917
d   1 1.0 
        0.9923430000         2.8127313385
d   1 1.0 
        0.4363610000         0.6678831060
d   1 1.0 
        0.1857050000         0.1497653612
d   1 1.0 
        0.0734410000         0.0295367428

[5D]
[7F]
[9G]
[MO]
 Sym=     1a
 Ene= -1.61555088312494E+02
 Spin= Alpha
 Occup= 2.000000
  1       0.0000090450307241
  2       0.0000701436656097
  3       0.0003702112395994
  4       0.0015532313955129
  5       0.0056610561064116
  6       0.0180100414246082
  7       0.0517762565674908
  8       0.1265694621657353
  9       0.2553799734361799
 10       0.3587873260619940
 11       0.2688483056225992
 12       0.0672082463046316
 13      -0.0057320364198951
 14       0.0037198904768563
 15      -0.0020755889619978
 16       0.0011419730765080
 17      -0.0004289248751757
 18       0.0002077766217093
 19      -0.0001718147909369
 20       0.0000487763245081
 21       0.0000000000005038
 22       0.0000000000018471
 23      -0.0000000000028716
 24      -0.0000000000032397
 25      -0.0000000000080213
 26       0.0000000000157957
 27      -0.0000000000001821
 28      -0.0000000000036418
 29       0.0000000000154200
 30      -0.0000000000138024
 31      -0.0000000000383820
 32       0.0000000000841603
 33      -0.0000000000174979
 34      -0.0000000000824189
 35       0.0000000002323521
 36       0.0000000000038261
 37      -0.0000000000083676
 38       0.0000000000361348
 39      -0.0000000000286476
 40       0.0000000000629413
 41      -0.0000000001511127
 42      -0.0000000000171935
 43       0.0000000000642737
 44      -0.0000000001406303
 45      -0.0000000000041716
 46       0.0000000000060054
 47      -0.0000000000149817
 48       0.0000000000064657
 49      -0.0000000000206872
 50       0.0000000000485219
 51       0.0000000000071511
 52      -0.0000000000209144
 53       0.0000000000458810
 54       0.0000000000002974
 55      -0.0000000000043434
 56       0.0000000000115500
 57      -0.0000010423902810
 58       0.0000004419192093
 59      -0.0000001421429504
 60       0.0000015170003405
 61      -0.0000010888739009
 62       0.0000027903938518
 63      -0.0000011795122194
 64       0.0000003792782495
 65      -0.0000040464062960
 66       0.0000029033686939
 67       0.0000005479161230
 68      -0.0000002322057643
 69       0.0000000747942634
 70      -0.0000007956838921
 71       0.0000005710302014
 72       0.0000001711309064
 73      -0.0000000721134156
 74       0.0000000231604978
 75      -0.0000002482558231
 76       0.0000001781919025
 77      -0.0000001805042829
 78       0.0000000762173209
 79      -0.0000000244837086
 80       0.0000002618777543
 81      -0.0000001879133595
 82       0.0000001167306807
 83      -0.0000000493110915
 84       0.0000000158379633
 85      -0.0000001693388029
 86       0.0000001214992033
 87      -0.0000000626241567
 88       0.0000000264621268
 89      -0.0000000085006675
 90       0.0000000908390944
 91      -0.0000000651722637
 92       0.0000000272600638
 93      -0.0000000115185068
 94       0.0000000037026832
 95      -0.0000000395343268
 96       0.0000000283617865
 97      -0.0000000084074577
 98       0.0000000035530834
 99      -0.0000000011420514
100       0.0000000121929999
101      -0.0000000087463781
 Sym=     1a
 Ene= -1.77408945643754E+01
 Spin= Alpha
 Occup= 2.000000
  1      -0.0000026460881984
  2      -0.0000205272958236
  3      -0.0001083454120066
  4      -0.0004553983016862
  5      -0.0016646265386556
  6      -0.0053587214570090
  7      -0.0156935060414018
  8      -0.0411441027158802
  9      -0.0905726798208647
 10      -0.1662653287284528
 11      -0.1745211128041906
 12       0.0415189991709523
 13       0.5121335993541511
 14       0.4864485775893050
 15       0.1168517222767440
 16      -0.0088744406585338
 17       0.0030273865221840
 18      -0.0012980577416970
 19       0.0010594888910962
 20      -0.0002988397910202
 21      -0.0000000000043748
 22       0.0000000000004697
 23       0.0000000000011571
 24      -0.0000000000243830
 25       0.0000000000210741
 26      -0.0000000000225100
 27      -0.0000000001706672
 28       0.0000000000717527
 29      -0.0000000000572355
 30      -0.0000000006095709
 31       0.0000000004134019
 32      -0.0000000003977326
 33      -0.0000000020048151
 34       0.0000000009511257
 35      -0.0000000009162173
 36      -0.0000000042902049
 37       0.0000000025600618
 38      -0.0000000019338201
 39      -0.0000000070422534
 40       0.0000000021280391
 41      -0.0000000009337679
 42      -0.0000000028944457
 43       0.0000000027191173
 44      -0.0000000017157753
 45      -0.0000000014401644
 46       0.0000000007527974
 47      -0.0000000016364435
 48      -0.0000000004649690
 49       0.0000000002151557
 50       0.0000000002820842
 51      -0.0000000007632270
 52       0.0000000000245589
 53       0.0000000003057983
 54      -0.0000000001175638
 55       0.0000000000216461
 56       0.0000000000895352
 57       0.0000062065962821
 58      -0.0000026295320698
 59       0.0000008455684887
 60      -0.0000090109074461
 61       0.0000064632207795
 62      -0.0000198266797940
 63       0.0000084170145875
 64      -0.0000027057373531
 65       0.0000288031816248
 66      -0.0000206492919017
 67       0.0002054392619520
 68      -0.0000869914448509
 69       0.0000279686719513
 70      -0.0002981430724545
 71       0.0002138704694348
 72       0.0002966800339951
 73      -0.0001253769043090
 74       0.0000403974545933
 75      -0.0004307966534397
 76       0.0003093133673852
 77      -0.0000886652528462
 78       0.0000375272569059
 79      -0.0000121431979965
 80       0.0001289927600459
 81      -0.0000926418947132
 82       0.0001096977374804
 83      -0.0000464184526931
 84       0.0000149753274169
 85      -0.0001593865344957
 86       0.0001144232000695
 87      -0.0000631999377825
 88       0.0000267446169255
 89      -0.0000086273301920
 90       0.0000918294138178
 91      -0.0000659221919835
 92       0.0000297239645016
 93      -0.0000125785767353
 94       0.0000040572587950
 95      -0.0000431892248458
 96       0.0000310040996756
 97      -0.0000092948064664
 98       0.0000039334003313
 99      -0.0000012687195368
100       0.0000135054418562
101      -0.0000096951284890
 Sym=     1a
 Ene= -1.46550283444036E+01
 Spin= Alpha
 Occup= 2.000000
  1      -0.0000000000002001
  2       0.0000000000004138
  3      -0.0000000000025327
  4       0.0000000000035917
  5      -0.0000000000208907
  6       0.0000000000085338
  7      -0.0000000001277012
  8      -0.0000000000738976
  9      -0.0000000004621677
 10      -0.0000000007985857
 11      -0.0000000006992482
 12       0.0000000000315054
 13       0.0000000043080434
 14       0.0000000002463041
 15      -0.0000000021262937
 16       0.0000000014933626
 17       0.0000000009778960
 18      -0.0000000002249120
 19      -0.0000000002971433
 20      -0.0000000000027326
 21      -0.0000210522209413
 22       0.0000142868504934
 23       0.0001963696062566
 24      -0.0001748894328689
 25       0.0001186872056939
 26       0.0016313326389373
 27      -0.0010270127125566
 28       0.0006969705088621
 29       0.0095797115198083
 30      -0.0040118738700215
 31       0.0027226238204067
 32       0.0374219219158486
 33      -0.0122321066893366
 34       0.0083011748436051
 35       0.1140979228323011
 36      -0.0268620356332952
 37       0.0182297149568990
 38       0.2505636763149032
 39      -0.0405704411026386
 40       0.0275325784545890
 41       0.3784301300410590
 42      -0.0321412711369400
 43       0.0218125366025193
 44       0.2998072216998764
 45      -0.0101995082266339
 46       0.0069217039250959
 47       0.0951396033520116
 48      -0.0004435985239090
 49       0.0003010841511422
 50       0.0041372277055392
 51      -0.0000163405304470
 52       0.0000110730927140
 53       0.0001527206928337
 54       0.0000036054349087
 55      -0.0000024408781057
 56      -0.0000337118965742
 57       0.0000000000869057
 58      -0.0000000000002193
 59      -0.0000000000303462
 60       0.0000000000020702
 61       0.0000000000037891
 62       0.0000000008221041
 63      -0.0000000000359280
 64      -0.0000000002130233
 65       0.0000000000146200
 66       0.0000000000335197
 67       0.0000000023913234
 68       0.0000000002991868
 69      -0.0000000008875242
 70       0.0000000000633131
 71       0.0000000001089237
 72       0.0000000014273114
 73       0.0000000014628933
 74      -0.0000000004722877
 75      -0.0000000001479828
 76       0.0000000001879492
 77      -0.0000000000365715
 78       0.0000000002597542
 79      -0.0000000002837948
 80       0.0000000000712120
 81       0.0000000000118203
 82       0.0000000000096262
 83       0.0000000002198279
 84       0.0000000000385899
 85       0.0000000000836677
 86      -0.0000000000779668
 87      -0.0000000001310030
 88      -0.0000000000787601
 89      -0.0000000000390545
 90       0.0000000001452903
 91      -0.0000000000848361
 92      -0.0000000000548523
 93       0.0000000000784218
 94       0.0000000000052753
 95       0.0000000001079012
 96      -0.0000000000771568
 97      -0.0000000000433094
 98      -0.0000000000048662
 99      -0.0000000000084758
100       0.0000000000561243
101      -0.0000000000359933
 Sym=     1a
 Ene= -1.46550222922299E+01
 Spin= Alpha
 Occup= 2.000000
  1      -0.0000000000002950
  2      -0.0000000000000171
  3      -0.0000000000015001
  4       0.0000000000017595
  5      -0.0000000000145758
  6       0.0000000000025076
  7      -0.0000000000874073
  8      -0.0000000000909631
  9      -0.0000000003040097
 10      -0.0000000007153587
 11      -0.0000000002472154
 12      -0.0000000007142481
 13       0.0000000041181189
 14      -0.0000000006921050
 15       0.0000000001103803
 16       0.0000000001893462
 17       0.0000000005616642
 18      -0.0000000001838176
 19      -0.0000000000665461
 20      -0.0000000000199471
 21      -0.0000614388206008
 22      -0.0001881041835154
 23       0.0000070988340130
 24      -0.0005104014850698
 25      -0.0015626688918767
 26       0.0000589731342325
 27      -0.0029972366796597
 28      -0.0091764907234283
 29       0.0003463103158502
 30      -0.0117083452257667
 31      -0.0358468120686861
 32       0.0013528123793333
 33      -0.0356981944607512
 34      -0.1092954050701565
 35       0.0041246886181129
 36      -0.0783948888338284
 37      -0.2400173629167118
 38       0.0090579272718147
 39      -0.1184005675361061
 40      -0.3625013581195825
 41       0.0136804630052635
 42      -0.0938020372810749
 43      -0.2871884430585280
 44       0.0108379861782804
 45      -0.0297665772921037
 46      -0.0911348012072525
 47       0.0034394386295263
 48      -0.0012944431027782
 49      -0.0039631465144277
 50       0.0001495060844004
 51      -0.0000477730578325
 52      -0.0001462521641936
 53       0.0000055453666398
 54       0.0000105454249981
 55       0.0000322811614628
 56      -0.0000012266748797
 57      -0.0000000000155259
 58      -0.0000000000220530
 59      -0.0000000000725163
 60      -0.0000000000351829
 61       0.0000000000041872
 62      -0.0000000001116711
 63      -0.0000000002199246
 64      -0.0000000006775767
 65      -0.0000000002711569
 66       0.0000000000452506
 67      -0.0000000004059303
 68      -0.0000000006044974
 69      -0.0000000019933852
 70      -0.0000000011064563
 71      -0.0000000001811044
 72       0.0000000000045372
 73      -0.0000000002873512
 74      -0.0000000011072022
 75      -0.0000000009962561
 76      -0.0000000013480961
 77      -0.0000000001158916
 78      -0.0000000000002054
 79       0.0000000000262324
 80      -0.0000000003909627
 81      -0.0000000001600698
 82       0.0000000000168628
 83       0.0000000000196703
 84      -0.0000000000851161
 85       0.0000000001011881
 86      -0.0000000002397547
 87      -0.0000000000735502
 88       0.0000000000078032
 89       0.0000000000395709
 90       0.0000000000226561
 91       0.0000000000761060
 92      -0.0000000000196520
 93       0.0000000000144734
 94      -0.0000000000246218
 95       0.0000000000693223
 96      -0.0000000000907308
 97      -0.0000000000227569
 98       0.0000000000050213
 99       0.0000000000054986
100       0.0000000000179793
101       0.0000000000014113
 Sym=     1a
 Ene= -1.46337644888991E+01
 Spin= Alpha
 Occup= 2.000000
  1      -0.0000000000001067
  2       0.0000000000004141
  3       0.0000000000018619
  4       0.0000000000076786
  5       0.0000000000295834
  6       0.0000000000928102
  7       0.0000000002748083
  8       0.0000000007158461
  9       0.0000000015817416
 10       0.0000000029083941
 11       0.0000000030531711
 12      -0.0000000006961214
 13      -0.0000000079475538
 14      -0.0000000107602713
 15      -0.0000000019032204
 16       0.0000000007593722
 17       0.0000000011092839
 18      -0.0000000010214862
 19      -0.0000000006608133
 20      -0.0000000000821313
 21      -0.0001871357986452
 22       0.0000602002001698
 23      -0.0000244419992330
 24      -0.0015556419952582
 25       0.0005004378029262
 26      -0.0002031850228681
 27      -0.0091292848076824
 28       0.0029368233249989
 29      -0.0011923860099754
 30      -0.0356855857637976
 31       0.0114797719603273
 32      -0.0046609529098480
 33      -0.1087462639567829
 34       0.0349828736226587
 35      -0.0142034677936393
 36      -0.2389830102685989
 37       0.0768789302458763
 38      -0.0312139807373348
 39      -0.3608923254755834
 40       0.1160964710599603
 41      -0.0471365117410998
 42      -0.2843370890711070
 43       0.0914689148308068
 44      -0.0371377045390067
 45      -0.0915620147587682
 46       0.0294548138585996
 47      -0.0119591891502357
 48      -0.0032484325886042
 49       0.0010449970112618
 50      -0.0004242008855905
 51      -0.0004574029507172
 52       0.0001471408262312
 53      -0.0000597841158501
 54       0.0001224617911615
 55      -0.0000393939392268
 56       0.0000160067346361
 57      -0.0000000000025989
 58      -0.0000000000713085
 59       0.0000000000277698
 60       0.0000000000074450
 61       0.0000000000354868
 62      -0.0000000000342165
 63      -0.0000000006581411
 64       0.0000000002406582
 65       0.0000000000469593
 66       0.0000000002535459
 67       0.0000000000952758
 68      -0.0000000020550880
 69       0.0000000007832001
 70      -0.0000000000515314
 71       0.0000000011188288
 72       0.0000000007084735
 73      -0.0000000010857737
 74       0.0000000003596745
 75      -0.0000000011669066
 76       0.0000000009220999
 77       0.0000000001414421
 78       0.0000000000464256
 79      -0.0000000000184535
 80      -0.0000000001062096
 81       0.0000000001734268
 82      -0.0000000002543621
 83       0.0000000000422168
 84      -0.0000000000009285
 85       0.0000000003095924
 86      -0.0000000002534155
 87      -0.0000000002613697
 88       0.0000000001447412
 89      -0.0000000000536717
 90       0.0000000004119722
 91      -0.0000000002764656
 92      -0.0000000002458826
 93       0.0000000000876148
 94      -0.0000000000250985
 95       0.0000000003428463
 96      -0.0000000002544262
 97      -0.0000000001107588
 98       0.0000000000519900
 99      -0.0000000000174177
100       0.0000000001645086
101      -0.0000000001155997
 Sym=     1a
 Ene= -2.30154062082472E+00
 Spin= Alpha
 Occup= 2.000000
  1      -0.0000009521394097
  2      -0.0000073715318577
  3      -0.0000390229900838
  4      -0.0001634139107761
  5      -0.0006004764517824
  6      -0.0019236181363184
  7      -0.0056886144619471
  8      -0.0148752995981314
  9      -0.0335590045002346
 10      -0.0620363390396740
 11      -0.0724811359355511
 12       0.0301110309876974
 13       0.2573361163086065
 14       0.4524898554732907
 15      -0.0677620013139391
 16      -0.7039393583296113
 17      -0.4495228925764050
 18      -0.0312063579535482
 19       0.0164160857915346
 20      -0.0037923333611086
 21      -0.0000000000049592
 22       0.0000000000022393
 23      -0.0000000000008013
 24      -0.0000000000443947
 25       0.0000000000173665
 26      -0.0000000000017604
 27      -0.0000000002483262
 28       0.0000000001162217
 29      -0.0000000000142648
 30      -0.0000000010184252
 31       0.0000000004230733
 32      -0.0000000000952275
 33      -0.0000000031013627
 34       0.0000000014368229
 35      -0.0000000001219401
 36      -0.0000000074866855
 37       0.0000000029579698
 38      -0.0000000006522784
 39      -0.0000000110575750
 40       0.0000000047297729
 41       0.0000000017679148
 42      -0.0000000072200239
 43       0.0000000031533413
 44      -0.0000000040427721
 45       0.0000000130562273
 46      -0.0000000042311488
 47       0.0000000006235691
 48       0.0000000251474795
 49      -0.0000000137958538
 50       0.0000000042957981
 51       0.0000000390052160
 52      -0.0000000149836272
 53       0.0000000030859392
 54       0.0000000143990654
 55      -0.0000000062513780
 56       0.0000000018945236
 57      -0.0000070213095225
 58       0.0000029656022284
 59      -0.0000009562808807
 60       0.0000101914004607
 61      -0.0000073157935772
 62      -0.0000122848769963
 63       0.0000051982695237
 64      -0.0000016543196768
 65       0.0000177373422850
 66      -0.0000127211068146
 67      -0.0002178077970530
 68       0.0000920532072313
 69      -0.0000296711998021
 70       0.0003161055957410
 71      -0.0002268803194477
 72       0.0000831746825552
 73      -0.0000354334446928
 74       0.0000115622460334
 75      -0.0001218107870710
 76       0.0000872807957717
 77      -0.0022308876162518
 78       0.0009435304927141
 79      -0.0003036403824653
 80       0.0032377897240805
 81      -0.0023232719091002
 82      -0.0016121530347719
 83       0.0006812630874034
 84      -0.0002188239912768
 85       0.0023335645120902
 86      -0.0016749015818835
 87      -0.0002639281099806
 88       0.0001110504098059
 89      -0.0000364184658818
 90       0.0003819569068490
 91      -0.0002739688929385
 92      -0.0011543652612804
 93       0.0004886981256480
 94      -0.0001567780971859
 95       0.0016778911532087
 96      -0.0012040292465341
 97       0.0002031807583873
 98      -0.0000860526991177
 99       0.0000275545995427
100      -0.0002955868340637
101       0.0002121054844765
 Sym=     1a
 Ene= -1.51007049414656E+00
 Spin= Alpha
 Occup= 2.000000
  1       0.0000000000000373
  2       0.0000000000004010
  3      -0.0000000000013235
  4       0.0000000000035071
  5      -0.0000000000097286
  6       0.0000000000143911
  7      -0.0000000000450157
  8       0.0000000000263146
  9      -0.0000000001118879
 10      -0.0000000001881018
 11       0.0000000000654726
 12      -0.0000000009610846
 13       0.0000000056736209
 14      -0.0000000069945036
 15      -0.0000000021139309
 16       0.0000000067159233
 17       0.0000000002374941
 18       0.0000000018932619
 19      -0.0000000037977849
 20       0.0000000006999454
 21      -0.0000074222893406
 22       0.0000041986011437
 23       0.0000671701347053
 24      -0.0000631644015038
 25       0.0000357317243931
 26       0.0005716363968958
 27      -0.0003648115124987
 28       0.0002063656955292
 29       0.0033014963622631
 30      -0.0014764013872590
 31       0.0008351896613969
 32       0.0133613407954093
 33      -0.0045069779270755
 34       0.0025494939533016
 35       0.0407876663269139
 36      -0.0107654030265365
 37       0.0060899260601049
 38       0.0974259041308078
 39      -0.0158094678807939
 40       0.0089429921830913
 41       0.1430750806800130
 42      -0.0128666671762634
 43       0.0072787615426619
 44       0.1164398159283969
 45       0.0174906626994754
 46      -0.0098946768731729
 47      -0.1582877955859832
 48       0.0520870106592520
 49      -0.0294638436205267
 50      -0.4713797911760346
 51       0.0460699349935661
 52      -0.0260622381717693
 53      -0.4169276726305406
 54       0.0118562228107422
 55      -0.0067067411050717
 56      -0.1073009725120941
 57       0.0000000000084708
 58      -0.0000000000601839
 59       0.0000000000167216
 60       0.0000000000087007
 61      -0.0000000000069008
 62       0.0000000002320664
 63      -0.0000000004784782
 64       0.0000000000702043
 65       0.0000000000761155
 66      -0.0000000000557708
 67       0.0000000004456878
 68      -0.0000000020339540
 69       0.0000000006025292
 70       0.0000000002156404
 71      -0.0000000001843623
 72      -0.0000000024402144
 73      -0.0000000046611989
 74       0.0000000019045497
 75       0.0000000008969845
 76      -0.0000000008961751
 77      -0.0000000006514950
 78      -0.0000000156678947
 79       0.0000000056962234
 80       0.0000000016300117
 81      -0.0000000015603473
 82      -0.0000000039742832
 83      -0.0000000231005816
 84       0.0000000084807532
 85       0.0000000028482889
 86      -0.0000000032042470
 87      -0.0000000030695926
 88      -0.0000000122361198
 89       0.0000000062676407
 90       0.0000000015497704
 91      -0.0000000012800976
 92       0.0000000006503818
 93      -0.0000000013949227
 94       0.0000000002669928
 95       0.0000000004740719
 96      -0.0000000005135716
 97      -0.0000000006516312
 98       0.0000000000553456
 99       0.0000000001723967
100       0.0000000003104680
101      -0.0000000001207539
 Sym=     1a
 Ene= -1.51005178820659E+00
 Spin= Alpha
 Occup= 2.000000
  1      -0.0000000000003146
  2       0.0000000000003015
  3      -0.0000000000012507
  4       0.0000000000002455
  5      -0.0000000000114045
  6      -0.0000000000037519
  7      -0.0000000000846431
  8      -0.0000000000856614
  9      -0.0000000004107322
 10      -0.0000000004539685
 11      -0.0000000009907740
 12       0.0000000008666355
 13       0.0000000023024106
 14       0.0000000042848538
 15      -0.0000000038000143
 16      -0.0000000013467810
 17      -0.0000000072606490
 18       0.0000000022118838
 19      -0.0000000002532355
 20       0.0000000003968008
 21      -0.0000209300538612
 22      -0.0000643703225666
 23       0.0000017109719225
 24      -0.0001781206055202
 25      -0.0005478101856687
 26       0.0000145600336276
 27      -0.0010287370543078
 28      -0.0031638829284283
 29       0.0000840963774813
 30      -0.0041633658721828
 31      -0.0128044294011535
 32       0.0003403238706627
 33      -0.0127093206669960
 34      -0.0390875528485975
 35       0.0010389571556369
 36      -0.0303577005832070
 37      -0.0933651067041239
 38       0.0024814923401329
 39      -0.0445818652234938
 40      -0.1371115020602809
 41       0.0036445394406015
 42      -0.0362821754296708
 43      -0.1115862596233391
 44       0.0029655811450096
 45       0.0493221873021188
 46       0.1516906896246460
 47      -0.0040313770393374
 48       0.1468806480470162
 49       0.4517324978896841
 50      -0.0120076940230361
 51       0.1299119520081150
 52       0.3995428542110576
 53      -0.0106184120868987
 54       0.0334370277188600
 55       0.1028372308007359
 56      -0.0027336325491440
 57      -0.0000000000000440
 58      -0.0000000000065579
 59      -0.0000000000119384
 60       0.0000000000323741
 61       0.0000000000527698
 62      -0.0000000000415966
 63      -0.0000000000874673
 64      -0.0000000002315935
 65       0.0000000002019294
 66       0.0000000004175840
 67       0.0000000000291293
 68      -0.0000000002666180
 69      -0.0000000004888918
 70       0.0000000010640130
 71       0.0000000017806062
 72       0.0000000002561152
 73       0.0000000003576525
 74       0.0000000015011681
 75       0.0000000036101343
 76       0.0000000040716929
 77       0.0000000004198941
 78      -0.0000000008871582
 79      -0.0000000004454768
 80       0.0000000097530788
 81       0.0000000133987358
 82       0.0000000011598828
 83      -0.0000000000906299
 84       0.0000000017315929
 85       0.0000000156877285
 86       0.0000000199508236
 87       0.0000000010781468
 88      -0.0000000005795965
 89       0.0000000013258500
 90       0.0000000089148669
 91       0.0000000102668274
 92       0.0000000004559177
 93      -0.0000000002633901
 94      -0.0000000002669674
 95       0.0000000000653168
 96       0.0000000019659019
 97       0.0000000001890001
 98      -0.0000000000863530
 99       0.0000000002371242
100       0.0000000000770186
101       0.0000000000038439
 Sym=     1a
 Ene= -1.48455370696772E+00
 Spin= Alpha
 Occup= 2.000000
  1      -0.0000000000002238
  2       0.0000000000007227
  3       0.0000000000021465
  4       0.0000000000113897
  5       0.0000000000409631
  6       0.0000000001328876
  7       0.0000000003865069
  8       0.0000000010227754
  9       0.0000000022859809
 10       0.0000000042751832
 11       0.0000000048985830
 12      -0.0000000018562095
 13      -0.0000000176781545
 14      -0.0000000300347398
 15      -0.0000000014211993
 16       0.0000000565073476
 17       0.0000000109323765
 18       0.0000000327134004
 19       0.0000000294340254
 20       0.0000000020852438
 21      -0.0000640083921176
 22       0.0000205901087383
 23      -0.0000083598020958
 24      -0.0005426732330811
 25       0.0001745662833881
 26      -0.0000708768462292
 27      -0.0031461428773277
 28       0.0010120472698486
 29      -0.0004109048126532
 30      -0.0126830208434658
 31       0.0040798518973703
 32      -0.0016564826566884
 33      -0.0388977237002043
 34       0.0125125745570629
 35      -0.0050802863958751
 36      -0.0924056782056489
 37       0.0297248996733476
 38      -0.0120687207637855
 39      -0.1367131097989632
 40       0.0439776713598024
 41      -0.0178557406121876
 42      -0.1098319500891017
 43       0.0353306723860535
 44      -0.0143443606620065
 45       0.1523706277603648
 46      -0.0490143803311520
 47       0.0199002671012036
 48       0.4398438143344922
 49      -0.1414887352888843
 50       0.0574463003346175
 51       0.4094866427911043
 52      -0.1317224194708474
 53       0.0534809538454354
 54       0.0953008764952026
 55      -0.0306568085732166
 56       0.0124473876183436
 57      -0.0000000000061878
 58      -0.0000000000202708
 59       0.0000000000067185
 60       0.0000000000056444
 61      -0.0000000000003804
 62      -0.0000000000810223
 63      -0.0000000003083292
 64       0.0000000001187216
 65       0.0000000001209048
 66       0.0000000000674758
 67      -0.0000000001254822
 68      -0.0000000006615180
 69       0.0000000002036660
 70       0.0000000000609429
 71      -0.0000000000190763
 72      -0.0000000002972571
 73       0.0000000001402316
 74       0.0000000000063965
 75       0.0000000004444860
 76      -0.0000000002579341
 77      -0.0000000031712510
 78      -0.0000000010191861
 79       0.0000000001543689
 80       0.0000000041007468
 81      -0.0000000033865261
 82      -0.0000000050553005
 83      -0.0000000005221647
 84       0.0000000003507152
 85       0.0000000062550803
 86      -0.0000000053345063
 87       0.0000000016896830
 88      -0.0000000009584026
 89      -0.0000000003291083
 90      -0.0000000030020789
 91       0.0000000001272035
 92       0.0000000078401729
 93      -0.0000000036340034
 94       0.0000000013401540
 95      -0.0000000118599520
 96       0.0000000081313246
 97       0.0000000043418536
 98      -0.0000000017448638
 99       0.0000000004976594
100      -0.0000000061552761
101       0.0000000044909462
 Sym=     1a
 Ene= -3.48357654015211E-01
 Spin= Alpha
 Occup= 2.000000
  1      -0.0000001877913339
  2      -0.0000014498767272
  3      -0.0000077060783875
  4      -0.0000321003232667
  5      -0.0001187492055260
  6      -0.0003773561639259
  7      -0.0011274375994284
  8      -0.0029150338227268
  9      -0.0066887223924991
 10      -0.0121460787641041
 11      -0.0148461955098624
 12       0.0070806725021533
 13       0.0511639383731986
 14       0.1067292122298133
 15      -0.0349627685398025
 16      -0.1904505629477255
 17      -0.2461809351038988
 18       0.4341715340825166
 19       0.3090708140759438