[Molden Format]
[Title]
[Atoms] AU
O      1     8  0.74251657652485E+01  0.93291508104487E+01  0.65787185241104E+01
O      2     8  0.87168796573005E+01  0.13490053597541E+02  0.57561286509175E+01
O      3     8  0.24553974299652E+01  0.78654346711724E+01  0.54236519074913E+01
H      4     1  0.12864105177157E+01  0.89797444130536E+01  0.46028624497205E+01
O      5     8  0.90380886079647E+01  0.98123864506196E+01  0.11488051714656E+02
H      6     1  0.96022431914402E+01  0.84950254438371E+01  0.10793091301391E+02
O      7     8  0.87119077216205E+01  0.84750829088914E+01  0.24527661566561E+01
O      8     8  0.34007607660616E+01  0.11162215882066E+02  0.94065712596947E+01
H      9     1  0.30697401256433E+01  0.99261083441114E+01  0.84857587141972E+01
O     10     8  0.10859437276273E+02  0.60646732098806E+01 -0.16313765604743E+01
H     11     1  0.11193173861628E+02  0.79435566675711E+01 -0.21889052511440E+01
O     12     8  0.13301678520729E+02  0.11119034525406E+02  0.34690007276579E+01
H     13     1  0.11683033343307E+02  0.10501804828121E+02  0.30345004346937E+01
O     14     8  0.13590527206706E+02  0.13438137080947E+02  0.10439609709419E+02
H     15     1  0.14976664301297E+02  0.12719546565550E+02  0.10219158824209E+02
O     16     8  0.34835012012799E+01  0.27209199125450E+01  0.38210819962294E+01
H     17     1  0.26804559436284E+01  0.23512413515275E+01  0.51017776111543E+01
O     18     8  0.87646870950199E+01  0.16364415659131E+01  0.30322999266824E+01
H     19     1  0.78050998363006E+01  0.65167589400950E+00  0.31425253692874E+01
C     20     6  0.11312091100816E+02  0.14038555715716E+02  0.64832964986062E+01
H     21     1  0.11351651972347E+02  0.15803717279915E+02  0.69456032097827E+01
C     22     6  0.11791566601142E+02  0.56396170311627E+01  0.86019855426138E+00
H     23     1  0.12442870037348E+02  0.39138460938401E+01  0.10034316157123E+01
H     24     1  0.13287362370220E+02  0.69144559386395E+01  0.12700931676467E+01
C     25     6  0.75280478008447E+01  0.11877180482018E+02  0.75181353639421E+01
C     26     6  0.44941818004424E+01  0.72173846926075E+01  0.37472649574927E+01
H     27     1  0.38789554747685E+01  0.72950122459911E+01  0.20338694652147E+01
C     28     6  0.66270683617433E+01  0.91544476117511E+01  0.40027239235488E+01
H     29     1  0.61421423254280E+01  0.10762870740137E+02  0.34391938474454E+01
C     30     6  0.11870619174187E+02  0.12295973715877E+02  0.86968074293291E+01
H     31     1  0.12490104376178E+02  0.10738313403717E+02  0.81332773532256E+01
C     32     6  0.54077498836590E+01  0.45724441900621E+01  0.42927908778620E+01
H     33     1  0.59537214904133E+01  0.44124094674817E+01  0.60389939429748E+01
C     34     6  0.96968111222315E+01  0.59489735443280E+01  0.28188506575283E+01
H     35     1  0.10488555610647E+02  0.57399889632446E+01  0.45056400086051E+01
C     36     6  0.76103684221049E+01  0.39899903181781E+01  0.25205818099591E+01
H     37     1  0.69221081187427E+01  0.40293809450542E+01  0.82899135083771E+00
C     38     6  0.92671956482030E+01  0.11908824834990E+02  0.98610761702043E+01
H     39     1  0.87612809229558E+01  0.13412755672834E+02  0.10854505477238E+02
C     40     6  0.48744845836724E+01  0.12900842337783E+02  0.79404328402169E+01
H     41     1  0.40735888598085E+01  0.13213495137716E+02  0.63022547096978E+01
H     42     1  0.50110794205329E+01  0.14595628179488E+02  0.88852509265043E+01
C     43     6  0.13023934821765E+02  0.13702993722746E+02  0.42149729156918E+01
H     44     1  0.14781506788103E+02  0.14265175431008E+02  0.46132648507988E+01
H     45     1  0.12387457630360E+02  0.14778572095105E+02  0.27498347270251E+01
[GTO]
           1 0
 s           4   1.0000000000000000     
   69.137961906196551      -0.20478756370077797     
   11.906129132707308      -0.24997023136827334     
  0.95670827744340703       0.40025880240639616     
  0.36462520496073686       0.15952206667693555     
 p           4   1.0000000000000000     
   8.2124193257781641        1.1321556799186829     
   2.1293576997098116        1.0476840782254817     
  0.75066448202360914       0.54956508217158984     
  0.29885246543283073        8.2908486592766617E-002

           2 0
 s           4   1.0000000000000000     
   69.137961906196551      -0.20478756370077797     
   11.906129132707308      -0.24997023136827334     
  0.95670827744340703       0.40025880240639616     
  0.36462520496073686       0.15952206667693555     
 p           4   1.0000000000000000     
   8.2124193257781641        1.1321556799186829     
   2.1293576997098116        1.0476840782254817     
  0.75066448202360914       0.54956508217158984     
  0.29885246543283073        8.2908486592766617E-002

           3 0
 s           4   1.0000000000000000     
   69.137961906196551      -0.20478756370077797     
   11.906129132707308      -0.24997023136827334     
  0.95670827744340703       0.40025880240639616     
  0.36462520496073686       0.15952206667693555     
 p           4   1.0000000000000000     
   8.2124193257781641        1.1321556799186829     
   2.1293576997098116        1.0476840782254817     
  0.75066448202360914       0.54956508217158984     
  0.29885246543283073        8.2908486592766617E-002

           4 0
 s           3   1.0000000000000000     
   3.3702276975336001       0.27359110588908298     
  0.61389118221497996       0.26460540653860526     
  0.16614291148415999        8.2465947534082318E-002

           5 0
 s           4   1.0000000000000000     
   69.137961906196551      -0.20478756370077797     
   11.906129132707308      -0.24997023136827334     
  0.95670827744340703       0.40025880240639616     
  0.36462520496073686       0.15952206667693555     
 p           4   1.0000000000000000     
   8.2124193257781641        1.1321556799186829     
   2.1293576997098116        1.0476840782254817     
  0.75066448202360914       0.54956508217158984     
  0.29885246543283073        8.2908486592766617E-002

           6 0
 s           3   1.0000000000000000     
   3.3702276975336001       0.27359110588908298     
  0.61389118221497996       0.26460540653860526     
  0.16614291148415999        8.2465947534082318E-002

           7 0
 s           4   1.0000000000000000     
   69.137961906196551      -0.20478756370077797     
   11.906129132707308      -0.24997023136827334     
  0.95670827744340703       0.40025880240639616     
  0.36462520496073686       0.15952206667693555     
 p           4   1.0000000000000000     
   8.2124193257781641        1.1321556799186829     
   2.1293576997098116        1.0476840782254817     
  0.75066448202360914       0.54956508217158984     
  0.29885246543283073        8.2908486592766617E-002

           8 0
 s           4   1.0000000000000000     
   69.137961906196551      -0.20478756370077797     
   11.906129132707308      -0.24997023136827334     
  0.95670827744340703       0.40025880240639616     
  0.36462520496073686       0.15952206667693555     
 p           4   1.0000000000000000     
   8.2124193257781641        1.1321556799186829     
   2.1293576997098116        1.0476840782254817     
  0.75066448202360914       0.54956508217158984     
  0.29885246543283073        8.2908486592766617E-002

           9 0
 s           3   1.0000000000000000     
   3.3702276975336001       0.27359110588908298     
  0.61389118221497996       0.26460540653860526     
  0.16614291148415999        8.2465947534082318E-002

          10 0
 s           4   1.0000000000000000     
   69.137961906196551      -0.20478756370077797     
   11.906129132707308      -0.24997023136827334     
  0.95670827744340703       0.40025880240639616     
  0.36462520496073686       0.15952206667693555     
 p           4   1.0000000000000000     
   8.2124193257781641        1.1321556799186829     
   2.1293576997098116        1.0476840782254817     
  0.75066448202360914       0.54956508217158984     
  0.29885246543283073        8.2908486592766617E-002

          11 0
 s           3   1.0000000000000000     
   3.3702276975336001       0.27359110588908298     
  0.61389118221497996       0.26460540653860526     
  0.16614291148415999        8.2465947534082318E-002

          12 0
 s           4   1.0000000000000000     
   69.137961906196551      -0.20478756370077797     
   11.906129132707308      -0.24997023136827334     
  0.95670827744340703       0.40025880240639616     
  0.36462520496073686       0.15952206667693555     
 p           4   1.0000000000000000     
   8.2124193257781641        1.1321556799186829     
   2.1293576997098116        1.0476840782254817     
  0.75066448202360914       0.54956508217158984     
  0.29885246543283073        8.2908486592766617E-002

          13 0
 s           3   1.0000000000000000     
   3.3702276975336001       0.27359110588908298     
  0.61389118221497996       0.26460540653860526     
  0.16614291148415999        8.2465947534082318E-002

          14 0
 s           4   1.0000000000000000     
   69.137961906196551      -0.20478756370077797     
   11.906129132707308      -0.24997023136827334     
  0.95670827744340703       0.40025880240639616     
  0.36462520496073686       0.15952206667693555     
 p           4   1.0000000000000000     
   8.2124193257781641        1.1321556799186829     
   2.1293576997098116        1.0476840782254817     
  0.75066448202360914       0.54956508217158984     
  0.29885246543283073        8.2908486592766617E-002

          15 0
 s           3   1.0000000000000000     
   3.3702276975336001       0.27359110588908298     
  0.61389118221497996       0.26460540653860526     
  0.16614291148415999        8.2465947534082318E-002

          16 0
 s           4   1.0000000000000000     
   69.137961906196551      -0.20478756370077797     
   11.906129132707308      -0.24997023136827334     
  0.95670827744340703       0.40025880240639616     
  0.36462520496073686       0.15952206667693555     
 p           4   1.0000000000000000     
   8.2124193257781641        1.1321556799186829     
   2.1293576997098116        1.0476840782254817     
  0.75066448202360914       0.54956508217158984     
  0.29885246543283073        8.2908486592766617E-002

          17 0
 s           3   1.0000000000000000     
   3.3702276975336001       0.27359110588908298     
  0.61389118221497996       0.26460540653860526     
  0.16614291148415999        8.2465947534082318E-002

          18 0
 s           4   1.0000000000000000     
   69.137961906196551      -0.20478756370077797     
   11.906129132707308      -0.24997023136827334     
  0.95670827744340703       0.40025880240639616     
  0.36462520496073686       0.15952206667693555     
 p           4   1.0000000000000000     
   8.2124193257781641        1.1321556799186829     
   2.1293576997098116        1.0476840782254817     
  0.75066448202360914       0.54956508217158984     
  0.29885246543283073        8.2908486592766617E-002

          19 0
 s           3   1.0000000000000000     
   3.3702276975336001       0.27359110588908298     
  0.61389118221497996       0.26460540653860526     
  0.16614291148415999        8.2465947534082318E-002

          20 0
 s           4   1.0000000000000000     
   51.049363095579913      -0.16312063210127389     
   8.7911227406887544      -0.19911024581000730     
  0.70640422258929825       0.31882047753655751     
  0.26922813413411617       0.12706504184240380     
 p           4   1.0000000000000000     
   5.8263656140800002       0.73716451545209605     
   1.5106896018720002       0.68216371614850257     
  0.53256483288000001       0.35783053929253711     
  0.21202323690600003        5.3983030275847881E-002

          21 0
 s           3   1.0000000000000000     
   3.3702276975336001       0.27359110588908298     
  0.61389118221497996       0.26460540653860526     
  0.16614291148415999        8.2465947534082318E-002

          22 0
 s           4   1.0000000000000000     
   51.049363095579913      -0.16312063210127389     
   8.7911227406887544      -0.19911024581000730     
  0.70640422258929825       0.31882047753655751     
  0.26922813413411617       0.12706504184240380     
 p           4   1.0000000000000000     
   5.8263656140800002       0.73716451545209605     
   1.5106896018720002       0.68216371614850257     
  0.53256483288000001       0.35783053929253711     
  0.21202323690600003        5.3983030275847881E-002

          23 0
 s           3   1.0000000000000000     
   3.3702276975336001       0.27359110588908298     
  0.61389118221497996       0.26460540653860526     
  0.16614291148415999        8.2465947534082318E-002

          24 0
 s           3   1.0000000000000000     
   3.3702276975336001       0.27359110588908298     
  0.61389118221497996       0.26460540653860526     
  0.16614291148415999        8.2465947534082318E-002

          25 0
 s           4   1.0000000000000000     
   51.049363095579913      -0.16312063210127389     
   8.7911227406887544      -0.19911024581000730     
  0.70640422258929825       0.31882047753655751     
  0.26922813413411617       0.12706504184240380     
 p           4   1.0000000000000000     
   5.8263656140800002       0.73716451545209605     
   1.5106896018720002       0.68216371614850257     
  0.53256483288000001       0.35783053929253711     
  0.21202323690600003        5.3983030275847881E-002

          26 0
 s           4   1.0000000000000000     
   51.049363095579913      -0.16312063210127389     
   8.7911227406887544      -0.19911024581000730     
  0.70640422258929825       0.31882047753655751     
  0.26922813413411617       0.12706504184240380     
 p           4   1.0000000000000000     
   5.8263656140800002       0.73716451545209605     
   1.5106896018720002       0.68216371614850257     
  0.53256483288000001       0.35783053929253711     
  0.21202323690600003        5.3983030275847881E-002

          27 0
 s           3   1.0000000000000000     
   3.3702276975336001       0.27359110588908298     
  0.61389118221497996       0.26460540653860526     
  0.16614291148415999        8.2465947534082318E-002

          28 0
 s           4   1.0000000000000000     
   51.049363095579913      -0.16312063210127389     
   8.7911227406887544      -0.19911024581000730     
  0.70640422258929825       0.31882047753655751     
  0.26922813413411617       0.12706504184240380     
 p           4   1.0000000000000000     
   5.8263656140800002       0.73716451545209605     
   1.5106896018720002       0.68216371614850257     
  0.53256483288000001       0.35783053929253711     
  0.21202323690600003        5.3983030275847881E-002

          29 0
 s           3   1.0000000000000000     
   3.3702276975336001       0.27359110588908298     
  0.61389118221497996       0.26460540653860526     
  0.16614291148415999        8.2465947534082318E-002

          30 0
 s           4   1.0000000000000000     
   51.049363095579913      -0.16312063210127389     
   8.7911227406887544      -0.19911024581000730     
  0.70640422258929825       0.31882047753655751     
  0.26922813413411617       0.12706504184240380     
 p           4   1.0000000000000000     
   5.8263656140800002       0.73716451545209605     
   1.5106896018720002       0.68216371614850257     
  0.53256483288000001       0.35783053929253711     
  0.21202323690600003        5.3983030275847881E-002

          31 0
 s           3   1.0000000000000000     
   3.3702276975336001       0.27359110588908298     
  0.61389118221497996       0.26460540653860526     
  0.16614291148415999        8.2465947534082318E-002

          32 0
 s           4   1.0000000000000000     
   51.049363095579913      -0.16312063210127389     
   8.7911227406887544      -0.19911024581000730     
  0.70640422258929825       0.31882047753655751     
  0.26922813413411617       0.12706504184240380     
 p           4   1.0000000000000000     
   5.8263656140800002       0.73716451545209605     
   1.5106896018720002       0.68216371614850257     
  0.53256483288000001       0.35783053929253711     
  0.21202323690600003        5.3983030275847881E-002

          33 0
 s           3   1.0000000000000000     
   3.3702276975336001       0.27359110588908298     
  0.61389118221497996       0.26460540653860526     
  0.16614291148415999        8.2465947534082318E-002

          34 0
 s           4   1.0000000000000000     
   51.049363095579913      -0.16312063210127389     
   8.7911227406887544      -0.19911024581000730     
  0.70640422258929825       0.31882047753655751     
  0.26922813413411617       0.12706504184240380     
 p           4   1.0000000000000000     
   5.8263656140800002       0.73716451545209605     
   1.5106896018720002       0.68216371614850257     
  0.53256483288000001       0.35783053929253711     
  0.21202323690600003        5.3983030275847881E-002

          35 0
 s           3   1.0000000000000000     
   3.3702276975336001       0.27359110588908298     
  0.61389118221497996       0.26460540653860526     
  0.16614291148415999        8.2465947534082318E-002

          36 0
 s           4   1.0000000000000000     
   51.049363095579913      -0.16312063210127389     
   8.7911227406887544      -0.19911024581000730     
  0.70640422258929825       0.31882047753655751     
  0.26922813413411617       0.12706504184240380     
 p           4   1.0000000000000000     
   5.8263656140800002       0.73716451545209605     
   1.5106896018720002       0.68216371614850257     
  0.53256483288000001       0.35783053929253711     
  0.21202323690600003        5.3983030275847881E-002

          37 0
 s           3   1.0000000000000000     
   3.3702276975336001       0.27359110588908298     
  0.61389118221497996       0.26460540653860526     
  0.16614291148415999        8.2465947534082318E-002

          38 0
 s           4   1.0000000000000000     
   51.049363095579913      -0.16312063210127389     
   8.7911227406887544      -0.19911024581000730     
  0.70640422258929825       0.31882047753655751     
  0.26922813413411617       0.12706504184240380     
 p           4   1.0000000000000000     
   5.8263656140800002       0.73716451545209605     
   1.5106896018720002       0.68216371614850257     
  0.53256483288000001       0.35783053929253711     
  0.21202323690600003        5.3983030275847881E-002

          39 0
 s           3   1.0000000000000000     
   3.3702276975336001       0.27359110588908298     
  0.61389118221497996       0.26460540653860526     
  0.16614291148415999        8.2465947534082318E-002

          40 0
 s           4   1.0000000000000000     
   51.049363095579913      -0.16312063210127389     
   8.7911227406887544      -0.19911024581000730     
  0.70640422258929825       0.31882047753655751     
  0.26922813413411617       0.12706504184240380     
 p           4   1.0000000000000000     
   5.8263656140800002       0.73716451545209605     
   1.5106896018720002       0.68216371614850257     
  0.53256483288000001       0.35783053929253711     
  0.21202323690600003        5.3983030275847881E-002

          41 0
 s           3   1.0000000000000000     
   3.3702276975336001       0.27359110588908298     
  0.61389118221497996       0.26460540653860526     
  0.16614291148415999        8.2465947534082318E-002

          42 0
 s           3   1.0000000000000000     
   3.3702276975336001       0.27359110588908298     
  0.61389118221497996       0.26460540653860526     
  0.16614291148415999        8.2465947534082318E-002

          43 0
 s           4   1.0000000000000000     
   51.049363095579913      -0.16312063210127389     
   8.7911227406887544      -0.19911024581000730     
  0.70640422258929825       0.31882047753655751     
  0.26922813413411617       0.12706504184240380     
 p           4   1.0000000000000000     
   5.8263656140800002       0.73716451545209605     
   1.5106896018720002       0.68216371614850257     
  0.53256483288000001       0.35783053929253711     
  0.21202323690600003        5.3983030275847881E-002

          44 0
 s           3   1.0000000000000000     
   3.3702276975336001       0.27359110588908298     
  0.61389118221497996       0.26460540653860526     
  0.16614291148415999        8.2465947534082318E-002

          45 0
 s           3   1.0000000000000000     
   3.3702276975336001       0.27359110588908298     
  0.61389118221497996       0.26460540653860526     
  0.16614291148415999        8.2465947534082318E-002

[MO]
Sym=     1a
Ene=  -0.74345341740389448     
Spin= Alpha
Occup=     2.00000000
           1 -0.50043261461641997     
           2   6.3790321972430060E-004
           3  -5.3997503699042840E-002
           4   6.3955868442478775E-002
           5 -0.31446123043317242     
           6   1.9131349149591401E-002
           7   6.2836940332770333E-002
           8  -3.3150244368222427E-002
           9  -3.3742816538850723E-002
          10  -1.8193570155416120E-002
          11  -2.8033256853585713E-003
          12   5.1486075578370408E-003
          13  -3.9490525273070459E-003
          14  -4.5307394695594371E-003
          15   7.1018383586439926E-004
          16  -2.6342894928630318E-003
          17   9.8124160495751313E-003
          18  -2.7596458554462618E-003
          19 -0.28921115007022202     
          20   3.7367734855719939E-002
          21  -1.7822062080378578E-002
          22  -5.6274524875612526E-002
          23  -3.7026596684007519E-003
          24  -6.8949816260915368E-003
          25   7.4307693452270603E-004
          26   5.9049738542558457E-003
          27  -3.3239126916709376E-003
          28  -3.0456000985072646E-006
          29   6.1902840466796926E-004
          30  -3.0655302670226046E-004
          31  -1.2252735115310530E-003
          32   2.8518835089271817E-004
          33  -3.9809118342355133E-003
          34   3.9619705718532752E-003
          35  -8.8095351319567288E-004
          36  -2.0298165183283761E-003
          37  -1.1515124958651416E-003
          38   5.5787897200744764E-003
          39   3.6947086907711175E-003
          40  -3.8251627214429756E-004
          41   1.6465817474621460E-003
          42   1.5773284521940804E-003
          43   5.3884890719247845E-003
          44  -2.9376551382740524E-004
          45  -1.7673442829208121E-003
          46   3.9646806016292675E-004
          47   1.0302299598032249E-003
          48   7.4232340884012506E-003
          49  -1.0272000478010687E-004
          50  -4.3966771052198172E-004
          51  -5.8125127503021363E-004
          52   1.4459888946867943E-003
          53  -6.5271270332385403E-002
          54   5.1754753360826501E-002
          55   2.4056621550077692E-002
          56   5.3996772207849124E-003
          57  -4.7766863225032633E-003
          58  -3.7382258722556223E-003
          59   5.0764633157082189E-003
          60  -3.5301947200231383E-003
          61  -3.3412728766305092E-003
          62   2.0092458829667921E-005
          63   2.3567227447408759E-004
          64 -0.23142901597172744     
          65  -3.2117670853942605E-002
          66   5.0893277085448732E-002
          67   9.7032929571075593E-002
          68  -6.0469387782752140E-002
          69  -2.9733121731451231E-002
          70  -2.3701211529050022E-002
          71  -1.5033119040184111E-002
          72  -1.0508604382995343E-002
          73 -0.25381018765343666     
          74  -8.4361496771531402E-002
          75   2.0010961565081623E-003
          76  -7.1622131036593262E-002
          77  -5.6142529680201322E-002
          78  -3.0212665007938358E-002
          79   2.2711762807835694E-002
          80  -2.3200370541041461E-003
          81   1.3607685513731836E-002
          82  -6.4110521693973828E-003
          83  -1.6844854620253140E-002
          84  -4.7207940545572584E-003
          85  -1.6356806923418652E-002
          86   1.8558600834906625E-003
          87  -3.0895752321420866E-003
          88  -5.3450005470593087E-002
          89   2.5109444017897119E-002
          90  -4.6334189005864439E-002
          91  -2.1921548710344615E-003
          92  -5.3622585698366466E-003
          93  -1.1517534654812167E-002
          94  -9.2646527492881345E-005
          95  -1.4584551090439140E-002
          96  -3.0832045737970281E-003
          97  -1.9809820808915414E-003
          98  -4.6378827481464220E-002
          99   9.9951995655032985E-003
         100   2.9224135886363064E-003
         101   3.8538400309213301E-002
         102  -6.3255435915486958E-003
         103  -3.7193590659874307E-002
         104  -3.1206493179619824E-002
         105   1.6721028822091231E-002
         106   1.4715883832334719E-002
         107  -7.6532236746904127E-003
         108  -3.2533338654966372E-003
         109  -8.2611583768814265E-003
         110   8.8549467322131224E-003
         111   2.4349193691862499E-003
         112  -5.3561528937425143E-003
         113  -1.9094665501846503E-004
         114  -1.9167670898441976E-004
Sym=     2a
Ene=  -0.73748709412272984     
Spin= Alpha
Occup=     2.00000000
           1  -4.7052741586761466E-003
           2   1.2802195253877557E-002
           3   7.4263613178293914E-002
           4   6.8652947412335269E-002
           5  0.46339641653134672     
           6   1.1402679922113383E-002
           7  -2.9068354394004157E-002
           8   5.1224516561433835E-002
           9  -1.4096788908998344E-002
          10  -1.2102745138683058E-002
          11   9.4533958957732306E-004
          12   5.3814203076308674E-003
          13  -1.3538861882299374E-003
          14   5.0995624403324244E-003
          15   3.1581097551209181E-004
          16   4.3341921397016840E-003
          17  -1.0452541558606098E-002
          18   3.2949847009490275E-003
          19 -0.50889852843679473     
          20   3.3720436613845627E-002
          21   5.9728826671848739E-003
          22  -3.4479415662157765E-002
          23  -2.3815160119487269E-003
          24   4.1525802592780230E-003
          25  -1.4792371419407861E-004
          26  -2.1120156644024233E-003
          27   1.1654499194000453E-003
          28  -5.0598646356396189E-003
          29   1.8072129304330237E-003
          30  -1.3050913267078606E-003
          31  -6.1348466520058176E-003
          32  -5.2836173077472001E-004
          33   8.4843823578468983E-003
          34  -3.0322191707279800E-003
          35   5.2932511860074461E-003
          36   4.4100016713570535E-003
          37   5.0907567364331307E-003
          38   7.5738074956005692E-004
          39  -8.5364355345544339E-003
          40  -1.0980307087164253E-004
          41  -5.2532150886344586E-003
          42  -1.2435217976562031E-003
          43   2.4040385848494552E-003
          44  -2.2946443721468665E-003
          45  -3.9546642912439657E-003
          46   1.1225010072701384E-003
          47   1.0892061518103134E-003
          48   1.1916753167157160E-002
          49   4.5860072940830396E-005
          50  -2.9300122152114355E-003
          51  -5.1191757107932475E-004
          52   2.7537453294840630E-003
          53  0.12509376214612131     
          54  -8.6571230215673894E-002
          55  -3.1451845258103767E-002
          56  -1.1713054494873131E-002
          57   1.5976127589440427E-002
          58  -1.6273463931831003E-002
          59   1.4723009423709771E-002
          60  -9.6579394095019453E-003
          61  -7.6945865025387144E-003
          62  -7.7102879771541975E-004
          63  -1.4407521371363223E-003
          64  0.18601409166838051     
          65   6.0112948024149668E-002
          66   5.4157750850184698E-002
          67  -5.9968897502893942E-002
          68  -6.3387970489076531E-002
          69  -3.5718994027674700E-002
          70  -1.3493852046512661E-002
          71   1.6668179948733515E-004
          72  -1.5185649878524006E-002
          73 -0.18734653378362587     
          74  -8.6253431299084249E-002
          75   5.7455218193020061E-002
          76   6.2644482936670035E-002
          77  -3.2119040140137466E-002
          78   5.3647664038786867E-002
          79  -3.1092888343413887E-002
          80   1.0051688127338355E-002
          81  -2.0333293768083183E-002
          82   1.1235130095154427E-002
          83  -2.7680470154328091E-002
          84  -7.9017667460407372E-003
          85  -1.8496850984295106E-002
          86   6.4254256519327901E-003
          87  -6.4055270891169953E-003
          88 -0.11353219918083779     
          89   4.2872533344351385E-002
          90  -8.6527308336919073E-002
          91   9.1879850383077936E-003
          92  -1.2864755645730117E-002
          93  -2.7024703320752051E-002
          94  -2.5772763681487709E-003
          95  -2.7721133057490133E-002
          96  -4.0532395970204280E-003
          97  -5.5446370918099475E-003
          98   6.2836968624343972E-002
          99  -4.7553016985362835E-003
         100   7.4389059614871425E-003
         101  -4.3411605137454075E-002
         102   1.1473639741579864E-002
         103   3.1760139460733208E-002
         104   3.1109905562586769E-002
         105  -4.1123392156388380E-003
         106  -1.0496956501838919E-002
         107   5.5914732426422245E-003
         108   5.2970714987450743E-003
         109   2.0534886522558419E-002
         110  -1.6863444054017140E-002
         111  -3.3162340447888401E-003
         112   1.1348244145052325E-002
         113   1.5953261800148331E-003
         114   2.3454279111003143E-003
Sym=     3a
Ene=  -0.73162737790379950     
Spin= Alpha
Occup=     2.00000000
           1  0.44786918331575742     
           2  -4.0065301282985889E-002
           3   1.1646669581299068E-002
           4   8.0395042823051890E-003
           5 -0.38389736314392242     
           6  -4.2732597758798369E-002
           7  -2.3364367954885001E-002
           8  -2.4318957138328490E-002
           9  0.22888174926739380     
          10   2.6241736252528521E-002