
GAUSSIAN              9 MOL ORBITALS     68 PRIMITIVES        2 NUCLEI
Co1     1    (CENTRE  1)   0.00000000  0.00000000  0.00000000  CHARGE = 27.0
Co2     2    (CENTRE  2)   2.83458919  0.00000000  0.00000000  CHARGE = 27.0
CENTRE ASSIGNMENTS    1  1  1  1  1  1  1  1  1  1  1  1  1  1  1  1  1  1  1  1
CENTRE ASSIGNMENTS    1  1  1  1  1  1  1  1  1  1  1  1  1  1  2  2  2  2  2  2
CENTRE ASSIGNMENTS    2  2  2  2  2  2  2  2  2  2  2  2  2  2  2  2  2  2  2  2
CENTRE ASSIGNMENTS    2  2  2  2  2  2  2  2
TYPE ASSIGNMENTS      5  6  7  8  9 10  5  6  7  8  9 10  5  6  7  8  9 10  1  1
TYPE ASSIGNMENTS      1  1  2  3  4  2  3  4  2  3  4  2  3  4  5  6  7  8  9 10
TYPE ASSIGNMENTS      5  6  7  8  9 10  5  6  7  8  9 10  1  1  1  1  2  3  4  2
TYPE ASSIGNMENTS      3  4  2  3  4  2  3  4
EXPONENTS  2.8303275E+00 2.8303275E+00 2.8303275E+00 2.8303275E+00 2.8303275E+00
EXPONENTS  2.8303275E+00 8.8745337E-01 8.8745337E-01 8.8745337E-01 8.8745337E-01
EXPONENTS  8.8745337E-01 8.8745337E-01 3.4568496E-01 3.4568496E-01 3.4568496E-01
EXPONENTS  3.4568496E-01 3.4568496E-01 3.4568496E-01 6.9511200E-01 3.5658431E-01
EXPONENTS  1.0893584E-01 6.0653579E-02 2.5173795E+00 2.5173795E+00 2.5173795E+00
EXPONENTS  7.2988092E-01 7.2988092E-01 7.2988092E-01 1.2738885E-01 1.2738885E-01
EXPONENTS  1.2738885E-01 6.2508673E-02 6.2508673E-02 6.2508673E-02 2.8303275E+00
EXPONENTS  2.8303275E+00 2.8303275E+00 2.8303275E+00 2.8303275E+00 2.8303275E+00
EXPONENTS  8.8745337E-01 8.8745337E-01 8.8745337E-01 8.8745337E-01 8.8745337E-01
EXPONENTS  8.8745337E-01 3.4568496E-01 3.4568496E-01 3.4568496E-01 3.4568496E-01
EXPONENTS  3.4568496E-01 3.4568496E-01 6.9511200E-01 3.5658431E-01 1.0893584E-01
EXPONENTS  6.0653579E-02 2.5173795E+00 2.5173795E+00 2.5173795E+00 7.2988092E-01
EXPONENTS  7.2988092E-01 7.2988092E-01 1.2738885E-01 1.2738885E-01 1.2738885E-01
EXPONENTS  6.2508673E-02 6.2508673E-02 6.2508673E-02
MO  1                     OCC NO =   2.00000000 ORB. ENERGY =  -1.71427178
  6.45720999E-03 -3.22860500E-03 -3.22860500E-03  1.93666941E-16  3.67084292E-15
  1.24055928E-15  2.94157930E-03 -1.47078965E-03 -1.47078965E-03  8.82248937E-17
  1.67225095E-15  5.65136258E-16  3.91914991E-04 -1.95957496E-04 -1.95957496E-04
  1.17544540E-17  2.22798758E-16  7.52947138E-17  3.34921964E-02  5.15452822E-02
 -6.63238103E-02 -1.68785323E-02 -1.03047136E-03  0.00000000E+00  0.00000000E+00
 -2.18441855E-03  0.00000000E+00  0.00000000E+00  2.64382917E-03  0.00000000E+00
  0.00000000E+00  6.93044046E-04  0.00000000E+00  0.00000000E+00  6.45720254E-03
 -3.22860127E-03 -3.22860127E-03  3.72546917E-16  9.87160449E-17  6.51320494E-16
  2.94157591E-03 -1.47078795E-03 -1.47078795E-03  1.69713592E-16  4.49700528E-17
  2.96708777E-16  3.91914539E-04 -1.95957269E-04 -1.95957269E-04  2.26114254E-17
  5.99148826E-18  3.95313558E-17  3.34921767E-02  5.15452519E-02 -6.63237713E-02
 -1.68785224E-02  1.03047141E-03  0.00000000E+00  0.00000000E+00  2.18441865E-03
  0.00000000E+00  0.00000000E+00 -2.64382930E-03  0.00000000E+00  0.00000000E+00
 -6.93044078E-04  0.00000000E+00  0.00000000E+00
MO  2                     OCC NO =   2.00000000 ORB. ENERGY =  -1.52540851
  3.35291950E-15 -1.27085366E-14  9.35561708E-15  1.85662204E+00  9.49362315E-02
 -1.85098410E-14  1.52742107E-15 -5.78936851E-15  4.26194743E-15  8.45783389E-01
  4.32481604E-02 -8.43215031E-15  2.03502661E-16 -7.71334061E-16  5.67831400E-16
  1.12686131E-01  5.76207563E-03 -1.12343941E-15  0.00000000E+00  0.00000000E+00
  0.00000000E+00  0.00000000E+00  0.00000000E+00  1.52335196E-04  7.78948495E-06
  0.00000000E+00  3.22923896E-04  1.65123418E-05  0.00000000E+00 -3.90838842E-04
 -1.99850945E-05  0.00000000E+00 -1.02453114E-04 -5.23882211E-06  1.88408374E-15
 -1.19967807E-14  1.01126970E-14 -1.85661896E+00 -9.49360742E-02 -4.39623561E-15
  8.58293555E-16 -5.46512843E-15  4.60683487E-15 -8.45781988E-01 -4.32480887E-02
 -2.00270329E-15  1.14352896E-16 -7.28134632E-16  6.13781736E-16 -1.12685944E-01
 -5.76206609E-03 -2.66825865E-16  0.00000000E+00  0.00000000E+00  0.00000000E+00
  0.00000000E+00  0.00000000E+00  1.52336354E-04  7.78954420E-06  0.00000000E+00
  3.22926352E-04  1.65124674E-05  0.00000000E+00 -3.90841815E-04 -1.99852465E-05
  0.00000000E+00 -1.02453894E-04 -5.23886196E-06
MO  3                     OCC NO =   2.00000000 ORB. ENERGY =  -1.52540851
 -3.74586544E-16  8.09199140E-16 -4.34612596E-16 -9.49362315E-02  1.85662204E+00
  9.75701024E-16 -1.70642743E-16  3.68630329E-16 -1.97987586E-16 -4.32481604E-02
  8.45783389E-01  4.44480192E-16 -2.27352188E-17  4.91136690E-17 -2.63784501E-17
 -5.76207563E-03  1.12686131E-01  5.92193624E-17  0.00000000E+00  0.00000000E+00
  0.00000000E+00  0.00000000E+00  0.00000000E+00 -7.78948495E-06  1.52335196E-04
  0.00000000E+00 -1.65123418E-05  3.22923896E-04  0.00000000E+00  1.99850945E-05
 -3.90838842E-04  0.00000000E+00  5.23882211E-06 -1.02453114E-04 -1.63229722E-16
  8.08248663E-16 -6.45018940E-16  9.49360742E-02 -1.85661896E+00  2.80864993E-16
 -7.43592315E-17  3.68197339E-16 -2.93838107E-16  4.32480887E-02 -8.45781988E-01
  1.27947930E-16 -9.90709227E-18  4.90559805E-17 -3.91488883E-17  5.76206609E-03
 -1.12685944E-01  1.70468672E-17  0.00000000E+00  0.00000000E+00  0.00000000E+00
  0.00000000E+00  0.00000000E+00 -7.78954420E-06  1.52336354E-04  0.00000000E+00
 -1.65124674E-05  3.22926352E-04  0.00000000E+00  1.99852465E-05 -3.90841815E-04
  0.00000000E+00  5.23886196E-06 -1.02453894E-04
MO  4                     OCC NO =   2.00000000 ORB. ENERGY =  -1.50532853
  1.13735996E+00 -5.68679981E-01 -5.68679981E-01 -4.05272644E-15  3.34176156E-16
 -6.58881248E-14  5.18123854E-01 -2.59061927E-01 -2.59061927E-01 -1.84621783E-15
  1.52233808E-16 -3.00153076E-14  6.90311172E-02 -3.45155586E-02 -3.45155586E-02
 -2.45976861E-16  2.02825439E-17 -3.99902495E-15 -9.83241633E-05 -1.51323212E-04
  1.94709033E-04  4.95508730E-05 -4.05093581E-04  0.00000000E+00  0.00000000E+00
 -8.58727339E-04  0.00000000E+00  0.00000000E+00  1.03932847E-03  0.00000000E+00
  0.00000000E+00  2.72445896E-04  0.00000000E+00  0.00000000E+00  1.13735665E+00
 -5.68678323E-01 -5.68678323E-01  4.22302388E-15 -5.13306830E-17 -8.59962860E-14
  5.18122342E-01 -2.59061171E-01 -2.59061171E-01  1.92379676E-15 -2.33836711E-17
 -3.91755720E-14  6.90309159E-02 -3.45154580E-02 -3.45154580E-02  2.56312923E-16
 -3.11547313E-18 -5.21947307E-15 -9.83222068E-05 -1.51320201E-04  1.94705158E-04
  4.95498871E-05  4.05093440E-04  0.00000000E+00  0.00000000E+00  8.58727040E-04
  0.00000000E+00  0.00000000E+00 -1.03932811E-03  0.00000000E+00  0.00000000E+00
 -2.72445802E-04  0.00000000E+00  0.00000000E+00
MO  5                     OCC NO =   2.00000000 ORB. ENERGY =  -1.49711384
  1.17919678E-13 -6.93361334E-01  6.93361334E-01 -1.24343480E-14  1.13437031E-18
  1.44714890E+00  5.37182599E-14 -3.15860465E-01  3.15860465E-01 -5.66446200E-15
  5.16761917E-19  6.59248073E-01  7.15703682E-15 -4.20829897E-02  4.20829897E-02
 -7.54692412E-16  6.88496625E-20  8.78334991E-02  0.00000000E+00  0.00000000E+00
  0.00000000E+00  0.00000000E+00  0.00000000E+00  0.00000000E+00  0.00000000E+00
  0.00000000E+00  0.00000000E+00  0.00000000E+00  0.00000000E+00  0.00000000E+00
  0.00000000E+00  0.00000000E+00  0.00000000E+00  0.00000000E+00  1.20108663E-13
 -6.93358536E-01  6.93358536E-01 -8.21313360E-16 -2.17693573E-16  1.44714306E+00
  5.47154511E-14 -3.15859190E-01  3.15859190E-01 -3.74148956E-16 -9.91702156E-17
  6.59245413E-01  7.28989545E-15 -4.20828198E-02  4.20828198E-02 -4.98489315E-17
 -1.32127304E-17  8.78331447E-02  0.00000000E+00  0.00000000E+00  0.00000000E+00
  0.00000000E+00  0.00000000E+00  0.00000000E+00  0.00000000E+00  0.00000000E+00
  0.00000000E+00  0.00000000E+00  0.00000000E+00  0.00000000E+00  0.00000000E+00
  0.00000000E+00  0.00000000E+00  0.00000000E+00
MO  6                     OCC NO =   2.00000000 ORB. ENERGY =  -1.49711384
  6.20053836E-14 -7.23574449E-01  7.23574449E-01 -2.05198614E-14  1.07165367E-16
 -1.38672267E+00  2.82465265E-14 -3.29624037E-01  3.29624037E-01 -9.34781426E-15
  4.88191378E-17 -6.31720929E-01  3.76336520E-15 -4.39167496E-02  4.39167496E-02
 -1.24543593E-15  6.50431282E-18 -8.41659793E-02  0.00000000E+00  0.00000000E+00
  0.00000000E+00  0.00000000E+00  0.00000000E+00  0.00000000E+00  0.00000000E+00
  0.00000000E+00  0.00000000E+00  0.00000000E+00  0.00000000E+00  0.00000000E+00
  0.00000000E+00  0.00000000E+00  0.00000000E+00  0.00000000E+00  6.13391708E-14
 -7.23571530E-01  7.23571530E-01  2.27694364E-14 -2.44645089E-16 -1.38671707E+00
  2.79430335E-14 -3.29622706E-01  3.29622706E-01  1.03726072E-14 -1.11447968E-16
 -6.31718380E-01  3.72292997E-15 -4.39165723E-02  4.39165723E-02  1.38197201E-15
 -1.48485302E-17 -8.41656397E-02  0.00000000E+00  0.00000000E+00  0.00000000E+00
  0.00000000E+00  0.00000000E+00  0.00000000E+00  0.00000000E+00  0.00000000E+00
  0.00000000E+00  0.00000000E+00  0.00000000E+00  0.00000000E+00  0.00000000E+00
  0.00000000E+00  0.00000000E+00  0.00000000E+00
MO  7                     OCC NO =   0.99997826 ORB. ENERGY =  -1.45476523
  2.90278465E-15 -3.79092787E-01  3.79092787E-01 -9.23234003E-16  8.98808281E-17
  2.07631954E+00  1.32236233E-15 -1.72695560E-01  1.72695560E-01 -4.20578862E-16
  4.09451735E-17  9.45866494E-01  1.76182101E-16 -2.30087215E-02  2.30087215E-02
 -5.60349201E-17  5.45524213E-18  1.26020488E-01  0.00000000E+00  0.00000000E+00
  0.00000000E+00  0.00000000E+00  0.00000000E+00  0.00000000E+00  0.00000000E+00
  0.00000000E+00  0.00000000E+00  0.00000000E+00  0.00000000E+00  0.00000000E+00
  0.00000000E+00  0.00000000E+00  0.00000000E+00  0.00000000E+00 -7.13799505E-15
  3.79094045E-01 -3.79094045E-01 -1.11247300E-14  1.19463294E-16 -2.07632643E+00
 -3.25171065E-15  1.72696133E-01 -1.72696133E-01 -5.06786609E-15  5.44214534E-17
 -9.45869632E-01 -4.33234674E-16  2.30087978E-02 -2.30087978E-02 -6.75206238E-16
  7.25072530E-18 -1.26020906E-01  0.00000000E+00  0.00000000E+00  0.00000000E+00
  0.00000000E+00  0.00000000E+00  0.00000000E+00  0.00000000E+00  0.00000000E+00
  0.00000000E+00  0.00000000E+00  0.00000000E+00  0.00000000E+00  0.00000000E+00
  0.00000000E+00  0.00000000E+00  0.00000000E+00
MO  8                     OCC NO =   0.99997826 ORB. ENERGY =  -1.45476523
 -3.82596534E-14  1.03815977E+00 -1.03815977E+00 -6.98685979E-15 -1.40922606E-16
  7.58185574E-01 -1.74291691E-14  4.72933247E-01 -4.72933247E-01 -3.18286104E-15
 -6.41972341E-17  3.45391120E-01 -2.32213785E-15  6.30102440E-02 -6.30102440E-02
 -4.24061646E-16 -8.55318041E-18  4.60174430E-02  0.00000000E+00  0.00000000E+00
  0.00000000E+00  0.00000000E+00  0.00000000E+00  0.00000000E+00  0.00000000E+00
  0.00000000E+00  0.00000000E+00  0.00000000E+00  0.00000000E+00  0.00000000E+00
  0.00000000E+00  0.00000000E+00  0.00000000E+00  0.00000000E+00  2.43643564E-14
 -1.03816321E+00  1.03816321E+00 -1.02368130E-14 -3.21782818E-16 -7.58188089E-01
  1.10991723E-14 -4.72934816E-01  4.72934816E-01 -4.66337585E-15 -1.46588027E-16
 -3.45392266E-01  1.47877435E-15 -6.30104530E-02  6.30104530E-02 -6.21314851E-16
 -1.95303406E-17 -4.60175956E-02  0.00000000E+00  0.00000000E+00  0.00000000E+00
  0.00000000E+00  0.00000000E+00  0.00000000E+00  0.00000000E+00  0.00000000E+00
  0.00000000E+00  0.00000000E+00  0.00000000E+00  0.00000000E+00  0.00000000E+00
  0.00000000E+00  0.00000000E+00  0.00000000E+00
MO  9                     OCC NO =   0.00004347 ORB. ENERGY =  -1.44456513
  1.30525771E+00 -6.52628857E-01 -6.52628857E-01 -1.14243342E-15 -4.51287906E-18
  1.19331758E-14  5.94609604E-01 -2.97304802E-01 -2.97304802E-01 -5.20435063E-16
 -2.05584016E-18  5.43615324E-15  7.92215317E-02 -3.96107658E-02 -3.96107658E-02
 -6.93390463E-17 -2.73905442E-19  7.24274185E-16 -8.35003831E-04 -1.28509064E-03
  1.65353849E-03  4.20803670E-04 -1.56613152E-04  0.00000000E+00  0.00000000E+00
 -3.31992413E-04  0.00000000E+00  0.00000000E+00  4.01814583E-04  0.00000000E+00
  0.00000000E+00  1.05330256E-04  0.00000000E+00  0.00000000E+00 -1.30526060E+00
  6.52630302E-01  6.52630302E-01  1.01369225E-15 -1.32614863E-16 -8.56828109E-15
 -5.94610920E-01  2.97305460E-01  2.97305460E-01  4.61787080E-16 -6.04126453E-17
 -3.90327685E-15 -7.92217071E-02  3.96108535E-02  3.96108535E-02  6.15252084E-17
 -8.04894887E-18 -5.20044697E-16  8.35004133E-04  1.28509111E-03 -1.65353909E-03
 -4.20803823E-04 -1.56614131E-04  0.00000000E+00  0.00000000E+00 -3.31994487E-04
  0.00000000E+00  0.00000000E+00  4.01817093E-04  0.00000000E+00  0.00000000E+00
  1.05330914E-04  0.00000000E+00  0.00000000E+00
END DATA
