
GAUSSIAN              9 MOL ORBITALS     60 PRIMITIVES        7 NUCLEI
O1     1    (CENTRE  1)   0.74637209 13.18957485  1.51763525  CHARGE =  8.0
C2     2    (CENTRE  2)   0.63595634 14.89963509  3.61901363  CHARGE =  6.0
H2a     3    (CENTRE  3)   1.35246435 14.20704610  5.22086048  CHARGE =  1.0
H2b     4    (CENTRE  4)   0.87986866 16.70798966  3.24461926  CHARGE =  1.0
C3     5    (CENTRE  5)  -1.66389716 13.72609400  2.66918217  CHARGE =  6.0
H3a     6    (CENTRE  6)  -2.82523547 14.62220407  1.61940993  CHARGE =  1.0
H3b     7    (CENTRE  7)  -2.38148681 12.33053449  3.58187751  CHARGE =  1.0
CENTRE ASSIGNMENTS    1  1  1  1  1  1  1  1  1  1  1  1  1  1  1  1  2  2  2  2
CENTRE ASSIGNMENTS    2  2  2  2  2  2  2  2  2  2  2  2  3  3  3  4  4  4  5  5
CENTRE ASSIGNMENTS    5  5  5  5  5  5  5  5  5  5  5  5  5  5  6  6  6  7  7  7
TYPE ASSIGNMENTS      1  1  1  1  4  2  3  4  2  3  4  2  3  4  2  3  1  1  1  1
TYPE ASSIGNMENTS      4  2  3  4  2  3  4  2  3  4  2  3  1  1  1  1  1  1  1  1
TYPE ASSIGNMENTS      1  1  4  2  3  4  2  3  4  2  3  4  2  3  1  1  1  1  1  1
EXPONENTS  6.9137962E+01 1.1906129E+01 9.5670828E-01 3.6462520E-01 8.2124193E+00
EXPONENTS  8.2124193E+00 8.2124193E+00 2.1293577E+00 2.1293577E+00 2.1293577E+00
EXPONENTS  7.5066448E-01 7.5066448E-01 7.5066448E-01 2.9885247E-01 2.9885247E-01
EXPONENTS  2.9885247E-01 5.1049363E+01 8.7911227E+00 7.0640422E-01 2.6922813E-01
EXPONENTS  5.8263656E+00 5.8263656E+00 5.8263656E+00 1.5106896E+00 1.5106896E+00
EXPONENTS  1.5106896E+00 5.3256483E-01 5.3256483E-01 5.3256483E-01 2.1202324E-01
EXPONENTS  2.1202324E-01 2.1202324E-01 3.3702277E+00 6.1389118E-01 1.6614291E-01
EXPONENTS  3.3702277E+00 6.1389118E-01 1.6614291E-01 5.1049363E+01 8.7911227E+00
EXPONENTS  7.0640422E-01 2.6922813E-01 5.8263656E+00 5.8263656E+00 5.8263656E+00
EXPONENTS  1.5106896E+00 1.5106896E+00 1.5106896E+00 5.3256483E-01 5.3256483E-01
EXPONENTS  5.3256483E-01 2.1202324E-01 2.1202324E-01 2.1202324E-01 3.3702277E+00
EXPONENTS  6.1389118E-01 1.6614291E-01 3.3702277E+00 6.1389118E-01 1.6614291E-01
MO  1                     OCC NO =   2.00000000 ORB. ENERGY =  -0.71741284
  1.14880916E-01  1.40227309E-01 -2.24535596E-01 -8.94880566E-02  1.12983345E-01
 -9.92172806E-02 -1.44020518E-01  1.04553512E-01 -9.18145508E-02 -1.33274960E-01
  5.48437839E-02 -4.81615329E-02 -6.99096856E-02  8.27384284E-03 -7.26574510E-03
 -1.05467149E-02  4.40575258E-02  5.37780211E-02 -8.61107589E-02 -3.43192108E-02
  3.89338928E-02  8.28448587E-02  9.25485529E-02  3.60289846E-02  7.66636965E-02
  8.56433855E-02  1.88990864E-02  4.02141176E-02  4.49244340E-02  2.85115394E-03
  6.06678214E-03  6.77738989E-03 -9.84254186E-03 -9.51927799E-03 -2.96674316E-03
 -9.91191665E-03 -9.58637426E-03 -2.98765413E-03  4.43200199E-02  5.40984297E-02
 -8.66238055E-02 -3.45236842E-02 -1.25972759E-01 -2.02804178E-03  2.34299342E-02
 -1.16573768E-01 -1.87672695E-03  2.16817964E-02 -6.11490371E-02 -9.84441420E-04
  1.13732360E-02 -9.22506595E-03 -1.48514800E-04  1.71578911E-03 -1.09690833E-02
 -1.06088198E-02 -3.30630575E-03 -1.11569356E-02 -1.07905024E-02 -3.36292827E-03
MO  2                     OCC NO =   2.00000000 ORB. ENERGY =  -0.63978053
 -1.26244102E-01 -1.54097577E-01  2.46745027E-01  9.83395652E-02  1.74092026E-01
 -1.17268255E-01 -1.80094237E-01  1.61102794E-01 -1.08518719E-01 -1.66657173E-01
  8.45068395E-02 -5.69237425E-02 -8.74204015E-02  1.27488707E-02 -8.58762956E-03
 -1.31884165E-02  4.13195051E-02  5.04359057E-02 -8.07592772E-02 -3.21863922E-02
  1.01763789E-01 -4.20502301E-02 -7.20034606E-02  9.41710612E-02 -3.89128080E-02
 -6.66311892E-02  4.93976458E-02 -2.04118025E-02 -3.49515429E-02  7.45222756E-03
 -3.07936532E-03 -5.27285960E-03 -3.13252725E-02 -3.02964398E-02 -9.44207698E-03
 -3.27494755E-02 -3.16738669E-02 -9.87136083E-03  5.30384097E-02  6.47403744E-02
 -1.03663963E-01 -4.13149929E-02  4.89912827E-02 -6.16453398E-02 -8.65801879E-02
  4.53359797E-02 -5.70459011E-02 -8.01203280E-02  2.37810919E-02 -2.99235580E-02
 -4.20273015E-02  3.58766306E-03 -4.51432777E-03 -6.34032269E-03 -4.22739367E-02
 -4.08855112E-02 -1.27422280E-02 -4.27327908E-02 -4.13292949E-02 -1.28805360E-02
MO  3                     OCC NO =   2.00000000 ORB. ENERGY =  -0.62376925
  1.39577598E-02  1.70372867E-02 -2.72805443E-02 -1.08725874E-02  2.67547395E-01
  1.72025946E-01  1.53863426E-01  2.47585337E-01  1.59190867E-01  1.42383477E-01
  1.29871456E-01  8.35039340E-02  7.46875788E-02  1.95926673E-02  1.25975704E-02
  1.12675174E-02 -6.36095310E-02 -7.76438221E-02  1.24325297E-01  4.95495120E-02
  1.05436420E-01  3.90264890E-02  2.44240827E-02  9.75696722E-02  3.61146721E-02
  2.26017703E-02  5.11803950E-02  1.89440340E-02  1.18558104E-02  7.72117667E-03
  2.85793482E-03  1.78859124E-03  5.31028039E-02  5.13587201E-02  1.60062698E-02
  5.40140392E-02  5.22400271E-02  1.62809347E-02  5.26579079E-02  6.42759218E-02
 -1.02920269E-01 -4.10185958E-02  9.28180834E-02  8.28340045E-02  8.12380055E-02
  8.58928060E-02  7.66536522E-02  7.51767327E-02  4.50552681E-02  4.02088488E-02
  3.94341273E-02  6.79712778E-03  6.06598728E-03  5.94911125E-03 -5.12546731E-02
 -4.95712884E-02 -1.54492054E-02 -4.98109761E-02 -4.81750075E-02 -1.50140456E-02
MO  4                     OCC NO =   2.00000000 ORB. ENERGY =  -0.57791334
  6.72154123E-04  8.20452759E-04 -1.31373019E-03 -5.23583624E-04  6.24810203E-02
 -3.40876461E-01  2.87116219E-01  5.78192305E-02 -3.15443227E-01  2.65694106E-01
  3.03292097E-02 -1.65466467E-01  1.39370452E-01  4.57552519E-03 -2.49626019E-02
  2.10257049E-02  4.61715575E-04  5.63584756E-04 -9.02426494E-04 -3.59659646E-04
  3.71404204E-02 -2.15457425E-01  1.71943607E-01  3.43693256E-02 -1.99381867E-01
  1.59114671E-01  1.80285084E-02 -1.04586215E-01  8.34639652E-02  2.71981681E-03
 -1.57780854E-02  1.25915406E-02  5.43994174E-02  5.26127482E-02  1.63970956E-02
 -5.51417346E-02 -5.33306850E-02 -1.66208451E-02  3.04280715E-04  3.71414745E-04
 -5.94718900E-04 -2.37023614E-04  3.65718891E-02 -2.11144576E-01  1.76697599E-01
  3.38432131E-02 -1.95390805E-01  1.63513963E-01  1.77525349E-02 -1.02492694E-01
  8.57716235E-02  2.67818290E-03 -1.54622527E-02  1.29396785E-02 -5.34379060E-02
 -5.16828162E-02 -1.61072764E-02  5.45296655E-02  5.27387184E-02  1.64363550E-02
MO  5                     OCC NO =   2.00000000 ORB. ENERGY =  -0.55051745
 -7.11112576E-02 -8.68006690E-02  1.38987477E-01  5.53930843E-02  3.32137333E-01
 -2.62577710E-01 -3.77926124E-01  3.07356137E-01 -2.42986447E-01 -3.49728566E-01
  1.61224365E-01 -1.27459097E-01 -1.83450920E-01  2.43226300E-02 -1.92287341E-02
 -2.76757724E-02 -1.48698613E-02 -1.81506269E-02  2.90632534E-02  1.15830813E-02
  1.37641296E-01  1.44195769E-01  1.50210345E-01  1.27371701E-01  1.33437136E-01
  1.39002957E-01  6.68131172E-02  6.99947552E-02  7.29143194E-02  1.00795604E-02
  1.05595487E-02  1.09999999E-02  5.22822197E-02  5.05650868E-02  1.57589289E-02
  5.28361326E-02  5.11008072E-02  1.59258896E-02 -9.67500455E-03 -1.18096191E-02
  1.89098677E-02  7.53647679E-03 -2.42809840E-01 -4.34767697E-02  1.14680226E-03
 -2.24693484E-01 -4.02329116E-02  1.06123785E-03 -1.17863481E-01 -2.11042659E-02
  5.56674747E-04 -1.77811204E-02 -3.18383173E-03  8.39810648E-05  5.02492185E-02
  4.85988565E-02  1.51461408E-02  4.92711094E-02  4.76528719E-02  1.48513187E-02
MO  6                     OCC NO =   2.00000000 ORB. ENERGY =  -0.51901351
 -3.80408165E-03 -4.64338338E-03  7.43510561E-03  2.96324130E-03 -6.37265935E-01
 -3.60221014E-01 -2.87190764E-01 -5.89718698E-01 -3.33344457E-01 -2.65763089E-01
 -3.09338293E-01 -1.74856598E-01 -1.39406637E-01 -4.66673931E-02 -2.63792159E-02
 -2.10311638E-02 -8.30946069E-03 -1.01427927E-02  1.62409022E-02  6.47276777E-03
 -9.17318173E-02  1.58702932E-01  2.06649901E-01 -8.48875876E-02  1.46861901E-01
  1.91231484E-01 -4.45279785E-02  7.70367463E-02  1.00310913E-01 -6.71757982E-03
  1.16219175E-02  1.51331048E-02  3.53335433E-02  3.41730648E-02  1.06502517E-02
  4.09958962E-02  3.96494460E-02  1.23570005E-02  8.20804138E-03  1.00189971E-02
 -1.60426774E-02 -6.39376581E-03  1.97941815E-01 -8.80319287E-02 -1.31722938E-01
  1.83173120E-01 -8.14637525E-02 -1.21894919E-01  9.60838793E-02 -4.27319979E-02
 -6.39402588E-02  1.44954061E-02 -6.44663460E-03 -9.64615523E-03 -3.92210298E-02
 -3.79328725E-02 -1.18220195E-02 -3.37717603E-02 -3.26625762E-02 -1.01794983E-02
MO  7                     OCC NO =   2.00000000 ORB. ENERGY =  -0.48800420
 -5.60166307E-03 -6.83756859E-03  1.09484918E-02  4.36349187E-03  5.17717873E-02
 -1.93622524E-02 -2.58234770E-02  4.79090272E-02 -1.79176096E-02 -2.38967539E-02
  2.51307899E-02 -9.39872316E-03 -1.25350970E-02  3.79128119E-03 -1.41791016E-03
 -1.89106978E-03  6.05545085E-04  7.39147643E-04 -1.18354233E-03 -4.71697605E-04
 -8.38182560E-02  2.28967246E-01 -1.84297044E-01 -7.75644673E-02  2.11883704E-01
 -1.70546403E-01 -4.06866189E-02  1.11144082E-01 -8.94605061E-02 -6.13806465E-03
  1.67674183E-02 -1.34961907E-02 -9.30370318E-02 -8.99813667E-02 -2.80432617E-02
  8.33130742E-02  8.05767783E-02  2.51122623E-02 -8.40030351E-04 -1.02536784E-03
  1.64184551E-03  6.54353102E-04  4.32184638E-02 -2.01070130E-01  2.34151161E-01
  3.99938783E-02 -1.86068027E-01  2.16680839E-01  2.09788804E-02 -9.76024096E-02
  1.13660430E-01  3.16491583E-03 -1.47244946E-02  1.71470397E-02 -8.85956867E-02
 -8.56858911E-02 -2.67045496E-02  8.73323096E-02  8.44640078E-02  2.63237419E-02
MO  8                     OCC NO =   2.00000000 ORB. ENERGY =  -0.47114287
 -3.81329007E-02 -4.65462347E-02  7.45310354E-02  2.97041432E-02  2.64657881E-01
 -2.02718128E-01 -3.06788487E-01  2.44911413E-01 -1.87593066E-01 -2.83898600E-01
  1.28468843E-01 -9.84023724E-02 -1.48919661E-01  1.93810663E-02 -1.48451786E-02
 -2.24663177E-02 -2.18947704E-03 -2.67254551E-03  4.27934902E-03  1.70552302E-03
 -3.92395987E-01 -2.34712158E-02  1.19041199E-01 -3.63118814E-01 -2.17199980E-02
  1.10159381E-01 -1.90474805E-01 -1.13932747E-02  5.77843555E-02 -2.87354098E-02
 -1.71881218E-03  8.71746335E-03 -1.14942013E-02 -1.11166911E-02 -3.46458706E-03
 -3.28957083E-02 -3.18152970E-02 -9.91543840E-03 -8.18972607E-03 -9.99664082E-03
  1.60068799E-02  6.37949885E-03  6.24662136E-02  3.00674015E-01  2.85831314E-01
  5.78055285E-02  2.78240337E-01  2.64505070E-01  3.03220223E-02  1.45951606E-01
  1.38746740E-01  4.57444088E-03  2.20185510E-02  2.09316105E-02 -9.79258257E-03
 -9.47095953E-03 -2.95168440E-03 -2.98279975E-02 -2.88483406E-02 -8.99076770E-03
MO  9                     OCC NO =   2.00000000 ORB. ENERGY =  -0.42400631
  2.31446159E-04  2.82510563E-04 -4.52363223E-04 -1.80288143E-04 -1.41675108E-01
  7.88418159E-01 -6.58613850E-01 -1.31104545E-01  7.29593259E-01 -6.09473817E-01
 -6.87711891E-02  3.82709815E-01 -3.19700886E-01 -1.03749590E-02  5.77363675E-02
 -4.82307146E-02 -2.84191664E-05 -3.46893409E-05  5.55454702E-05  2.21374974E-05
  1.80399299E-02 -8.54184734E-02  7.29153577E-02  1.66939473E-02 -7.90452904E-02
  6.74750484E-02  8.75684829E-03 -4.14633881E-02  3.53941911E-02  1.32107563E-03
 -6.25524959E-03  5.33963841E-03  5.24194686E-02  5.06978279E-02  1.58002985E-02
 -5.06156932E-02 -4.89532948E-02 -1.52566038E-02  1.28960898E-04  1.57413785E-04
 -2.52055025E-04 -1.00455851E-04  1.71677337E-02 -9.43280424E-02  7.68036836E-02
  1.58868269E-02 -8.72901050E-02  7.10732613E-02  8.33347142E-03 -4.57882244E-02
  3.72816419E-02  1.25720415E-03 -6.90770305E-03  5.62438301E-03 -5.04802026E-02
 -4.88222542E-02 -1.52157641E-02  5.16966816E-02  4.99987797E-02  1.55824358E-02
END DATA
