[Molden Format]
[Title]
 Molden file created by orca_2mkl for BaseName=test

[Atoms] AU
Sc   1  21          0.0000000000         0.0000000000         0.0000000000 
F    2   9          0.0000000000         0.0000000000         2.4566439741 
[GTO]
  1 0
s   1 1.0 
       36.5800000000        10.6009031811
s   1 1.0 
       11.0400000000         4.3165512068
s   1 1.0 
        4.4910000000         2.1987071238
s   1 1.0 
        1.1290000000         0.7806035979
s   1 1.0 
        0.4546000000         0.3945773627
s   1 1.0 
        0.0775300000         0.1047158519
s   1 1.0 
        0.0307900000         0.0523862558
p   1 1.0 
       32.5900000000       110.9929868356
p   1 1.0 
       13.2200000000        35.9318358362
p   1 1.0 
        5.5840000000        12.2355036216
p   1 1.0 
        2.1860000000         3.7888096331
p   1 1.0 
        0.8950000000         1.2408488486
p   1 1.0 
        0.3520000000         0.3864723405
d   1 1.0 
       22.4300000000       659.0544735975
d   1 1.0 
        6.0350000000        66.2453370087
d   1 1.0 
        1.9790000000         9.4134804158
d   1 1.0 
        0.6668000000         1.4026921550
d   1 1.0 
        0.2182000000         0.1985938931
d   1 1.0 
        0.0588000000         0.0200161434

  2 0
s   3 1.0 
       51.6427630000         0.2223234405
        9.4142770000        -1.1079171582
        1.2141230000         0.9191314703
s   1 1.0 
        0.3700810000         0.3381681362
p   3 1.0 
       22.3008300000         5.1508973879
        4.9545730000         3.5954745001
        1.3423110000         1.5035538693
p   1 1.0 
        0.3465300000         0.3789798644
p   1 1.0 
        0.0847720000         0.0652012054

[5D]
[7F]
[9G]
[MO]
 Sym=     1a
 Ene= -2.75625764334276E+00
 Spin= Alpha
 Occup= 2.000000
  1       0.0119043704177857
  2      -0.0633238789561883
  3       0.3717347111307243
  4      -0.5595851147536109
  5      -0.5844340500382771
  6       0.0047403039799153
  7      -0.0039984709210764
  8       0.0000000007377450
  9      -0.0000000000791514
 10       0.0011344239928034
 11      -0.0000000004903470
 12       0.0000000014909408
 13       0.0005947138090260
 14       0.0000000082089929
 15      -0.0000000059154150
 16       0.0083456604029281
 17      -0.0000000204243177
 18       0.0000000055602977
 19      -0.0259532021817687
 20      -0.0000000643119212
 21       0.0000000049284721
 22      -0.1076677745779751
 23      -0.0000000182070280
 24       0.0000000054877558
 25      -0.0398968643149732
 26      -0.0006397636223353
 27       0.0000000003362752
 28       0.0000000000143734
 29       0.0000000007179651
 30      -0.0000000002972861
 31      -0.0031557782025992
 32       0.0000000058957518
 33      -0.0000000070589918
 34      -0.0000000029927438
 35       0.0000000007436462
 36      -0.0087094657739003
 37       0.0000000039445849
 38       0.0000000060567361
 39       0.0000000308518351
 40      -0.0000000111217601
 41      -0.0296713808856212
 42       0.0000000009009513
 43       0.0000000076801872
 44       0.0000000346454103
 45      -0.0000000123964555
 46      -0.0005318111539655
 47      -0.0000000064909710
 48       0.0000000054862053
 49      -0.0000000025227353
 50       0.0000000011153941
 51      -0.0002725534305900
 52      -0.0000000000777824
 53      -0.0000000000354505
 54       0.0000000009279393
 55      -0.0000000003916842
 56      -0.1123587300693457
 57      -0.0343230961120032
 58      -0.0000000081178964
 59       0.0000000032939661
 60       0.0871021632280712
 61      -0.0000000030595653
 62      -0.0000000023717824
 63      -0.0032081633436596
 64       0.0000000030746502
 65      -0.0000000013025623
 66       0.0035363651661332
 Sym=     1a
 Ene= -2.11397153862192E+00
 Spin= Alpha
 Occup= 2.000000
  1       0.0043580465691858
  2      -0.0222490330210410
  3       0.1405546799400672
  4      -0.2356681167611832
  5      -0.2182370536892975
  6      -0.0241342910959455
  7       0.0091906999709783
  8       0.0000000012243385
  9       0.0000000005748600
 10      -0.0052613281906969
 11       0.0000000015968382
 12      -0.0000000016658155
 13      -0.0015385590196769
 14       0.0000000078982581
 15       0.0000000071747951
 16      -0.0399891800570434
 17      -0.0000000392695766
 18      -0.0000000090487512
 19       0.1365736580768820
 20      -0.0000001070689730
 21      -0.0000000353526949
 22       0.4232180103627801
 23      -0.0000000311342656
 24      -0.0000000160714609
 25       0.1545289232716901
 26       0.0026068548005527
 27       0.0000000009484582
 28      -0.0000000006167140
 29       0.0000000010904900
 30      -0.0000000004164371
 31       0.0116321885992228
 32       0.0000000031897407
 33      -0.0000000069737524
 34       0.0000000131503639
 35      -0.0000000050766604
 36       0.0407021164180535
 37       0.0000000143867222
 38      -0.0000000055594701
 39       0.0000000244120167
 40      -0.0000000088134724
 41       0.0724857760455910
 42       0.0000000437947632
 43      -0.0000000117371543
 44       0.0000000019454844
 45      -0.0000000004822597
 46      -0.0083730266853392
 47      -0.0000000210612301
 48       0.0000000199797028
 49      -0.0000000008302789
 50       0.0000000006270468
 51       0.0013262240881926
 52       0.0000000037609422
 53      -0.0000000035138759
 54       0.0000000004458106
 55      -0.0000000000153277
 56       0.3076644181387683
 57       0.2296071562468470
 58       0.0000000071649113
 59      -0.0000000048011194
 60      -0.1588368419179270
 61       0.0000000157169402
 62      -0.0000000104726436
 63      -0.0421759836193553
 64      -0.0000000030313558
 65       0.0000000023067252
 66       0.0021912038682158
 Sym=     1a
 Ene= -1.86262364960645E+00
 Spin= Alpha
 Occup= 2.000000
  1      -0.0000000005865264
  2       0.0000000045254803
  3      -0.0000000188656009
  4       0.0000000236906437
  5       0.0000000306414669
  6      -0.0000000052487422
  7       0.0000000017193020
  8       0.0014116528453208
  9       0.0081099189307136
 10      -0.0000000000166575
 11       0.0001526601490556
 12       0.0008770288643058
 13       0.0000000033723615
 14       0.0112865647122085
 15       0.0648411031114856
 16      -0.0000000064359904
 17      -0.0399426168612922
 18      -0.2294695793373508
 19      -0.0000000058845331
 20      -0.1033419069144246
 21      -0.5936972961472450
 22      -0.0000000202589205
 23      -0.0481552536584715
 24      -0.2766510282843655
 25       0.0000000039579933
 26       0.0000000002486846
 27      -0.0001965574274305
 28      -0.0011292187684809
 29      -0.0000000001329708
 30      -0.0000000010094072
 31       0.0000000033485573
 32      -0.0011049681093758
 33      -0.0063480227203932
 34       0.0000000007841376
 35      -0.0000000024896779
 36       0.0000000013205374
 37      -0.0030540646504100
 38      -0.0175455440933697
 39      -0.0000000044365861
 40      -0.0000000174108590
 41       0.0000000002238839
 42      -0.0056605365191113
 43      -0.0325196742651284
 44      -0.0000000058988391
 45      -0.0000000277140383
 46      -0.0000000117979196
 47      -0.0003264234560021
 48      -0.0018752999776821
 49      -0.0000000034950281
 50      -0.0000000065957418
 51       0.0000000023269604
 52       0.0004766864820124
 53       0.0027385563476214
 54       0.0000000006535517
 55       0.0000000004379292
 56      -0.0000000408270363
 57      -0.0000000366549079
 58      -0.0115337788172135
 59      -0.0662613400737115
 60       0.0000000096939656
 61      -0.0043196041406027
 62      -0.0248160378951915
 63       0.0000000085136699
 64      -0.0004598772109365
 65      -0.0026419881116673
 66      -0.0000000024652438
 Sym=     1a
 Ene= -1.86262342432017E+00
 Spin= Alpha
 Occup= 2.000000
  1       0.0000000016200459
  2      -0.0000000068922492
  3       0.0000000518460855
  4      -0.0000000864264368
  5      -0.0000000921244693
  6      -0.0000000298398899
  7       0.0000000114774051
  8      -0.0081099193443963
  9       0.0014116529290546
 10      -0.0000000006073263
 11      -0.0008770324927265
 12       0.0001526605005046
 13       0.0000000027386438
 14      -0.0648410886769180
 15       0.0112865630033558
 16      -0.0000000095516596
 17       0.2294695920333587
 18      -0.0399426193932713
 19       0.0000000091118633
 20       0.5936972364273118
 21      -0.1033418949471467
 22       0.0000000265329144
 23       0.2766510859133390
 24      -0.0481552660577228
 25       0.0000000037784616
 26      -0.0000000003310226
 27       0.0011292209797591
 28      -0.0001965578351346
 29       0.0000000015194677
 30      -0.0000000003308380
 31      -0.0000000059590050
 32       0.0063480694583786
 33      -0.0011049768822069
 34       0.0000000113189821
 35      -0.0000000018211919
 36      -0.0000000062319035
 37       0.0175455727108179
 38      -0.0030540697848503
 39       0.0000000258326235
 40      -0.0000000063084917
 41       0.0000000064797539
 42       0.0325196453520040
 43      -0.0056605311464239
 44       0.0000000236523367
 45      -0.0000000050229801
 46      -0.0000000358086055
 47       0.0018753382259887
 48      -0.0003264312962065
 49       0.0000000057160373
 50      -0.0000000034474081
 51       0.0000000043756130
 52      -0.0027385671475927
 53       0.0004766888925574
 54      -0.0000000005034405
 55       0.0000000006887247
 56       0.0000000467882816
 57       0.0000000807177018
 58       0.0662613439718064
 59      -0.0115337791174180
 60      -0.0000000169307183
 61       0.0248159968708601
 62      -0.0043195948435225
 63      -0.0000000194879500
 64       0.0026420051955911
 65      -0.0004598809619324
 66       0.0000000029131557
 Sym=     1a
 Ene= -1.56946640794024E+00
 Spin= Alpha
 Occup= 2.000000
  1       0.0015748979443426
  2      -0.0077923888475252
  3       0.0533066830462756
  4      -0.0927130943478550
  5      -0.1274284486607684
  6       0.0217195147077994
  7      -0.0029896086187879
  8       0.0000000004735758
  9       0.0000000000391602
 10       0.0056784160370504
 11      -0.0000000017786518
 12       0.0000000032948391
 13       0.0009671923295303
 14       0.0000000071396228
 15      -0.0000000058649013
 16       0.0453766701478329
 17      -0.0000000131166236
 18      -0.0000000058209143
 19      -0.1682936180975466
 20      -0.0000000118336214
 21      -0.0000000311232293
 22      -0.4213046120332414
 23      -0.0000000101757202
 24      -0.0000000005358113
 25      -0.2395807806830435
 26       0.0017101633883967
 27      -0.0000000006579833
 28       0.0000000003460959
 29      -0.0000000008674531
 30       0.0000000003232535
 31       0.0088863773518180
 32       0.0000000035099012
 33       0.0000000006155401
 34      -0.0000000191697230
 35       0.0000000071359874
 36       0.0250291152110232
 37      -0.0000000148581865
 38       0.0000000060887515
 39      -0.0000000065355480
 40       0.0000000025594079
 41       0.0255817987481161
 42      -0.0000000224062764
 43       0.0000000012829283
 44       0.0000000010827567
 45      -0.0000000003250623
 46       0.0035877327354039
 47       0.0000000319051104
 48      -0.0000000214355238
 49      -0.0000000163071987
 50       0.0000000068215615
 51       0.0003039292564377
 52      -0.0000000034575846
 53       0.0000000024008170
 54       0.0000000037760737
 55      -0.0000000016661730
 56       0.4288541583686657
 57       0.5197162282668157
 58      -0.0000000188926541
 59       0.0000000130737223
 60       0.1013274738841897
 61      -0.0000000358720141
 62       0.0000000220016627
 63      -0.0232968529186058
 64       0.0000000024970623
 65      -0.0000000009593493
 66       0.0136347946652283
 Sym=     1a
 Ene= -1.10366569512311E+00
 Spin= Alpha
 Occup= 2.000000
  1       0.0000000003253675
  2      -0.0000000011133259
  3       0.0000000145478971
  4      -0.0000000390758818
  5      -0.0000000119720017
  6      -0.0000000155713427
  7       0.0000000058272198
  8      -0.0003276573215517
  9      -0.0017570108058724
 10       0.0000000007086969
 11      -0.0000530242646774
 12      -0.0002843340572349
 13      -0.0000000020282596
 14      -0.0026366764344972
 15      -0.0141387630285250
 16       0.0000000100151992
 17       0.0101803452262046
 18       0.0545904997352846
 19      -0.0000000254283912
 20       0.0258352727765364
 21       0.1385375802023425
 22      -0.0000000052658979
 23       0.0075007471080268
 24       0.0402215747655868
 25      -0.0000000641063666
 26       0.0000000017030990
 27      -0.0010684097655913
 28      -0.0057291793737823
 29       0.0000000000577204
 30       0.0000000004973011
 31       0.0000000087260277
 32      -0.0057120575445624
 33      -0.0306300107008003
 34       0.0000000011742194
 35       0.0000000020550177
 36       0.0000000251432117
 37      -0.0151717124716726
 38      -0.0813559225626284
 39       0.0000000018313413
 40       0.0000000088363102
 41       0.0000000418866981
 42      -0.0291720811189574
 43      -0.1564306999197851
 44      -0.0000000020107695
 45       0.0000000087005561
 46       0.0000000188725122
 47      -0.0101988511952122
 48      -0.0546897316346372
 49       0.0000000044839271
 50      -0.0000000049775026
 51       0.0000000017576405
 52      -0.0003461330815892
 53      -0.0018560871418677
 54       0.0000000000604485
 55      -0.0000000001436336
 56       0.0000000085552640
 57      -0.0000000009287757
 58      -0.1193584672392515
 59      -0.6400409952915105
 60      -0.0000000946515014
 61      -0.0707253139088411
 62      -0.3792533588546640
 63      -0.0000000463165979
 64       0.0005820913363929
 65       0.0031213754871606
 66      -0.0000000036826630
 Sym=     1a
 Ene= -1.10366553360309E+00
 Spin= Alpha
 Occup= 2.000000
  1       0.0000000007281436
  2      -0.0000000035968911
  3       0.0000000275027628
  4      -0.0000000715280040
  5      -0.0000000315617262
  6       0.0000000309684735
  7      -0.0000000098210613
  8       0.0017570110595742
  9      -0.0003276573661057
 10       0.0000000019341883
 11       0.0002843309361506
 12      -0.0000530236020654
 13      -0.0000000011574903
 14       0.0141387647009254
 15      -0.0026366769939398
 16       0.0000000187282525
 17      -0.0545904760717471
 18       0.0101803411322494
 19      -0.0000000710342968
 20      -0.1385375795151145
 21       0.0258352713180341
 22      -0.0000000830243150
 23      -0.0402216148058470
 24       0.0075007542106073
 25      -0.0000001007958762
 26       0.0000000044347144
 27       0.0057291753240996
 28      -0.0010684090754480
 29      -0.0000000013418509
 30       0.0000000001985221
 31       0.0000000278210596
 32       0.0306299728508145
 33      -0.0057120509340333
 34      -0.0000000094887384
 35       0.0000000024355375
 36       0.0000000619742828
 37       0.0813558713724349
 38      -0.0151717038482995
 39      -0.0000000202814450
 40       0.0000000035915130
 41       0.0000001117699942
 42       0.1564305887272686
 43      -0.0291720628563073
 44      -0.0000000297602524
 45       0.0000000006013060
 46       0.0000000612414713
 47       0.0546896791356017
 48      -0.0101988404383753
 49      -0.0000000152550114
 50       0.0000000066520195
 51       0.0000000008399096
 52       0.0018560938273102
 53      -0.0003461354373584
 54       0.0000000004413507
 55       0.0000000000047589
 56      -0.0000000051628364
 57      -0.0000000548311519
 58       0.6400410691395576
 59      -0.1193584817009192
 60      -0.0000002164317096
 61       0.3792533908697558
 62      -0.0707253181060730
 63      -0.0000001293448886
 64      -0.0031213418507632
 65       0.0005820859280271
 66       0.0000000025536617
 Sym=     1a
 Ene= -1.00233642686994E+00
 Spin= Alpha
 Occup= 2.000000
  1      -0.0018337844112056
  2       0.0086794356966938
  3      -0.0638058673876438
  4       0.1331621920657783
  5       0.1275315072080521
  6       0.0849266617353509
  7      -0.0296252903153671
  8       0.0000000005634219
  9      -0.0000000001682510
 10      -0.0034833362205098
 11       0.0000000012875681
 12      -0.0000000032770932
 13       0.0012216118470905
 14       0.0000000017473572
 15       0.0000000041219387
 16      -0.0313268743593006
 17      -0.0000000082698685
 18       0.0000000081412670
 19       0.1225140358877361
 20      -0.0000000907572684
 21       0.0000000635963503
 22       0.1732382281306703
 23       0.0000000044761527
 24      -0.0000000223457006
 25       0.2178495133766032
 26      -0.0106596096181086
 27       0.0000000012667196
 28      -0.0000000006284390
 29       0.0000000010123736
 30      -0.0000000004290915
 31      -0.0549231640197081
 32      -0.0000000016390283
 33      -0.0000000005510758
 34       0.0000000218934224
 35      -0.0000000084316049
 36      -0.1584714479660750
 37       0.0000000235098457
 38      -0.0000000109946274
 39       0.0000000045902584
 40      -0.0000000027834833
 41      -0.2539341798401605
 42       0.0000000429416919
 43      -0.0000000189261923
 44       0.0000000147443272
 45      -0.0000000073194199
 46      -0.0712068810001433
 47      -0.0000000338876115
 48       0.0000000270496930
 49       0.0000000400575050
 50      -0.0000000166402938
 51      -0.0101101418546147
 52      -0.0000000029026681
 53       0.0000000022368106
 54      -0.0000000021396796
 55      -0.0000000009950780
 56       0.0071760067157489
 57       0.0597888996137412
 58       0.0000002540325763
 59      -0.0000001547002415
 60       0.6366620689361870
 61       0.0000001517337222
 62      -0.0000001048502999
 63       0.3252700691087878
 64       0.0000000276532108
 65      -0.0000000142882216
 66       0.0354674724709087
 Sym=     1a
 Ene= -6.40665535004105E-01
 Spin= Alpha
 Occup= 0.000000
  1      -0.0000000011249075
  2       0.0000000100781174
  3      -0.0000000321770289
  4       0.0000000457231609
  5       0.0000000898486043
  6      -0.0000002103845832
  7       0.0000000163341017
  8      -0.0000000009313783
  9       0.0000000002388300
 10      -0.0000000011403232
 11       0.0000000009650976
 12      -0.0000000014845746
 13       0.0000000076876863
 14      -0.0000000082805702
 15       0.0000000020162248
 16      -0.0000000168062624
 17       0.0000000176846325
 18       0.0000000027312694
 19      -0.0000000148018579
 20       0.0000000822178300
 21      -0.0000000006095261
 22       0.0000000566167060
 23       0.0000000187355073
 24      -0.0000000082601598
 25       0.0000000689384028
 26       0.0000000005069490
 27       0.0000000112784625
 28      -0.0000000015351383
 29      -0.0217936674165782
 30       0.0000005407867657
 31       0.0000000218365625
 32       0.0000000652865579
 33      -0.0000000046253765
 34      -0.1127159446171661
 35       0.0000027970121275
 36      -0.0000000050668267
 37       0.0000001665583999
 38      -0.0000000213556501
 39      -0.3242214830821134
 40       0.0000080452398120
 41       0.0000000283781409
 42       0.0000002584170908
 43      -0.0000000445192670
 44      -0.4837968729252198
 45       0.0000120045172983
 46       0.0000001155787228
 47       0.0000001852023628
 48      -0.0000000233724614
 49      -0.3538855265948547
 50       0.0000087806859624
 51       0.0000000070738455
 52       0.0000000420656991
 53       0.0000000025262630
 54      -0.0397511640092567
 55       0.0000009864177847
 56      -0.0000000166724013
 57      -0.0000000642988476
 58      -0.0000001967972530
 59       0.0000000273640567
 60       0.0000000923702654
 61      -0.0000001600030521
 62       0.0000000285584569
 63       0.0000000623585129
 64      -0.0000000907852135
 65       0.0000000015692885
 66       0.0000000211236225
 Sym=     1a
 Ene= -6.40651574567474E-01
 Spin= Alpha
 Occup= 0.000000
  1      -0.0000000007379732
  2       0.0000000050690715
  3      -0.0000000230012117
  4       0.0000000427324683
  5       0.0000000605968017
  6      -0.0000001473641555
  7       0.0000000071344742
  8       0.0000000000972460
  9       0.0000000004812805
 10      -0.0000000004724475
 11      -0.0000000001489644
 12       0.0000000017934181
 13       0.0000000027869648
 14      -0.0000000007898366
 15       0.0000000022798383
 16      -0.0000000065398781
 17      -0.0000000003778142
 18      -0.0000000216246845
 19      -0.0000000042447291
 20       0.0000000041615327
 21      -0.0000000638087224
 22       0.0000000279414956
 23       0.0000000051652903
 24       0.0000000123708497
 25       0.0000000268739645
 26       0.0000000006207344
 27       0.0000000003749648
 28      -0.0000000048312777
 29       0.0000005407627852
 30       0.0217939813631077
 31       0.0000000104191297
 32       0.0000000068247999
 33      -0.0000000269131432
 34       0.0000027966994943
 35       0.1127168496741793
 36       0.0000000048672219
 37       0.0000000062564853
 38      -0.0000000737929381
 39       0.0000080448733631
 40       0.3242279581420439
 41       0.0000000210055635
 42       0.0000000019161388
 43      -0.0000001028464065
 44       0.0000120044753049
 45       0.4837922089540460
 46       0.0000000575072184
 47       0.0000000138446966
 48      -0.0000000582999468
 49       0.0000087813138534
 50       0.3538825814063247
 51       0.0000000119229359
 52       0.0000000049585667
 53      -0.0000000283312999
 54       0.0000009863904626
 55       0.0397552001475915
 56      -0.0000000052437959
 57      -0.0000000247773685
 58      -0.0000000143719766
 59       0.0000000599459237
 60       0.0000000490892820
 61      -0.0000000054386459
 62       0.0000000487812054
 63       0.0000000365582980
 64      -0.0000000050918331
 65       0.0000000619779374
 66       0.0000000085398570
 Sym=     1a
 Ene= -5.53571628755929E-01
 Spin= Alpha
 Occup= 0.000000
  1      -0.0000000015453131
  2       0.0000000102998478
  3      -0.0000000406737032
  4       0.0000000478740295
  5       0.0000001398724785
  6      -0.0000001390415054
  7       0.0000000123651940
  8       0.0001194764831674
  9       0.0006713131026051
 10      -0.0000000011444206
 11       0.0001765801860876
 12       0.0009921665846324
 13      -0.0000000039063720
 14       0.0007829079227459
 15       0.0043989945903182
 16      -0.0000000009138193
 17      -0.0042039599452394
 18      -0.0236211648739612
 19       0.0000000264019840
 20      -0.0146644316802918
 21      -0.0823963293007294
 22       0.0000002073874975
 23       0.0024347697833378
 24       0.0136804425619097
 25      -0.0000000924325225
 26       0.0000000055678146
 27      -0.0038349124407337
 28      -0.0215475593151238
 29      -0.0000000004290059
 30      -0.0000000043382320
 31       0.0000000322282398
 32      -0.0199102753271558
 33      -0.1118716107408710
 34       0.0000000026544143
 35      -0.0000000210142935
 36       0.0000000784201872
 37      -0.0568845452208436
 38      -0.3196221916435739
 39      -0.0000000057321283
 40      -0.0000000633992858
 41       0.0000001293819598
 42      -0.0855986314705311
 43      -0.4809605451680641
 44      -0.0000000153492353
 45      -0.0000000974577078
 46       0.0000001502762155
 47      -0.0637435852687655
 48      -0.3581616862440494
 49      -0.0000000084934711
 50      -0.0000000823456066
 51       0.0000000463864569
 52      -0.0168447534459733
 53      -0.0946471522402723
 54       0.0000000086680279
 55      -0.0000000015762735
 56      -0.0000000187862850
 57      -0.0000001260177995
 58       0.0517200404871282
 59       0.2906039292469899
 60       0.0000001566084149
 61       0.0482460176969127
 62       0.2710841248374942
 63       0.0000001417481782
 64       0.0298941767389393
 65       0.1679691196171745
 66      -0.0000000311729399
 Sym=     1a
 Ene= -5.53571359471714E-01
 Spin= Alpha
 Occup= 0.000000
  1      -0.0000000139844266
  2       0.0000000708228403
  3      -0.0000004658900369
  4       0.0000010021802046
  5       0.0000011094240266
  6      -0.0000023872139211
  7       0.0000001240178178
  8      -0.0006713119118632
  9       0.0001194763008276
 10      -0.0000000026095625
 11      -0.0009921839205412
 12       0.0001765832605326
 13      -0.0000000051688014
 14      -0.0043989665804180
 15       0.0007829032997375
 16      -0.0000000115627297
 17       0.0236212372669864
 18      -0.0042039748039114
 19       0.0000000439272207
 20       0.0823963045890458
 21      -0.0146644265081882
 22       0.0000004892085709
 23      -0.0136805113983424
 24       0.0024347775965989
 25       0.0000000402389609
 26       0.0000000288415989
 27       0.0215475591154329
 28      -0.0038349122791954
 29       0.0000000119971457
 30      -0.0000000012940500
 31       0.0000001646849825
 32       0.1118715860360979
 33      -0.0199102696452626
 34       0.0000000563544150
 35      -0.0000000013483287
 36       0.0000004103596037
 37       0.3196222029170170
 38      -0.0568845459902171
 39       0.0000001800036428
 40      -0.0000000186484027
 41       0.0000007025283161
 42       0.4809604853763116
 43      -0.0855986170200317
 44       0.0000002548089324
 45      -0.0000000324591024
 46       0.0000007754296800
 47       0.3581617503400579
 48      -0.0637435966085505
 49       0.0000001941124913
 50      -0.0000000212517822
 51       0.0000001424503555
 52       0.0946473681013727
 53      -0.0168448115056699
 54       0.0000000205804859
 55       0.0000000063078687
 56       0.0000000273804914
 57      -0.0000004123448660
 58      -0.2906037599643180
 59       0.0517200071208387
 60       0.0000006907928798
 61      -0.2710840165353108
 62       0.0482459926397283
 63       0.0000008008412363
 64      -0.1679693980653999
 65       0.0298942550169438
 66       0.0000000355947865
 Sym=     1a
 Ene= -5.45534824917121E-01
 Spin= Alpha
 Occup= 0.000000
  1       0.0050132079184557
  2      -0.0248726672346728
  3       0.1703388815075503
  4      -0.3785468891940731
  5      -0.4035232311511956
  6       0.9772002735484250
  7      -0.0481093848690776
  8      -0.0000000011311051
  9       0.0000000002199002
 10       0.0004710109859345
 11      -0.0000000030790745
 12       0.0000000025782896
 13       0.0013117330197378
 14      -0.0000000054409947
 15      -0.0000000029813912
 16       0.0020595654384720
 17       0.0000000488332902
 18      -0.0000000033710748
 19      -0.0132088204439030
 20       0.0000001333256676
 21      -0.0000000825385433
 22      -0.0793218103941004
 23       0.0000000165746526
 24       0.0000000321724575
 25      -0.0593133789812562
 26      -0.0090317399053764
 27       0.0000000589450852
 28      -0.0000000169529273
 29      -0.0000000061822685
 30       0.0000000042701326
 31      -0.0479909109429472
 32       0.0000003066575587
 33      -0.0000000920421429
 34      -0.0000000280473214
 35       0.0000000206824389
 36      -0.1311421188324358
 37       0.0000008724221960
 38      -0.0000002462095095
 39      -0.0000000861336674
 40       0.0000000613090318
 41      -0.2217581993653680
 42       0.0000013389922158
 43      -0.0000004060439381
 44      -0.0000001424134497
 45       0.0000000986903871
 46      -0.2036302835505655
 47       0.0000009274172131
 48      -0.0000002365544020
 49      -0.0000000523424270
 50       0.0000000425565553
 51      -0.0290829774940587
 52       0.0000001283652090
 53      -0.0000000377275042
 54       0.0000000245523490
 55      -0.0000000648923269
 56      -0.0308663247833851
 57       0.0652336103802547
 58      -0.0000008167264474
 59       0.0000002151661921
 60      -0.1866751073735670
 61      -0.0000007825685904
 62       0.0000002096132389
 63      -0.2424379536917026
 64      -0.0000001959470218
 65       0.0000000932620625
 66      -0.0476530137827556
 Sym=     1a
 Ene= -3.73382108273222E-01
 Spin= Alpha
 Occup= 0.000000
  1       0.0000997365002805
  2       0.0000030333345279
  3       0.0048228942247723
  4      -0.0060779281241378
  5       0.0014312749657802
  6      -0.2007407918597546
  7      -0.5022431900431864
  8      -0.0000000008134315
  9       0.0000000003335305
 10       0.0029706513890477
 11      -0.0000000014887297
 12      -0.0000000007705054
 13       0.0036370818228436
 14      -0.0000000056185159
 15       0.0000000033785282
 16       0.0193253962153069
 17       0.0000000466042016
 18      -0.0000000197279037
 19      -0.0930388548506369
 20       0.0000000405444442
 21       0.0000000433593995
 22      -0.3581953457017915
 23       0.0000000406131595
 24      -0.0000000942927261
 25      -0.0257930358624680
 26      -0.0141094263028395
 27       0.0000000066421370
 28      -0.0000000067390633
 29      -0.0000000020892106
 30       0.0000000003517213
 31      -0.0746485052629833
 32       0.0000000253861606
 33      -0.0000000281562955
 34      -0.0000000048006337
 35      -0.0000000005497896
 36      -0.2077380060016183
 37       0.0000001094903627
 38      -0.0000001094464673
 39      -0.0000000392229261
 40       0.0000000081309079
 41      -0.3217250349655473
 42       0.0000000929311809
 43      -0.0000001166180918
 44      -0.0000000011159766
 45      -0.0000000102634517
 46      -0.4129441227166574
 47       0.0000001063786015
 48      -0.0000001107119441
 49       0.0000000215360241
 50      -0.0000000121036598
 51      -0.2907853993441766
 52       0.0000003939787346
 53      -0.0000001680572936
 54       0.0000000196133625
 55       0.0000000536867619
 56       0.1052649158551658
 57       0.6330726885524500
 58       0.0000000145286836
 59       0.0000000648542795
 60      -0.2712613543637130
 61       0.0000000549443437
 62       0.0000000454494724
 63      -0.3733738516801048
 64      -0.0000007595136044
 65       0.0000002450938345
 66       0.2760924909716169
 Sym=     1a
 Ene= -3.19042869119173E-01
 Spin= Alpha
 Occup= 0.000000
  1       0.0000000013828834
  2      -0.0000000077181321
  3       0.0000000407748712
  4      -0.0000000902175693
  5      -0.0000000942177318
  6       0.0000002993884103
  7      -0.0000000318629874
  8      -0.0008082445502550
  9       0.0014568459215036
 10      -0.0000000013823597
 11      -0.0021667754776734
 12       0.0039055765561462
 13      -0.0000000013708607
 14      -0.0033545118489596