[Molden Format]
[Title]
 Molden file created by orca_2mkl for BaseName=test

[Atoms] AU
Sc   1  21          0.0000000000         0.0000000000         0.0000000000 
F    2   9          0.0000000000         0.0000000000         2.4566439741 
[GTO]
  1 0
s   1 1.0 
       36.5800000000        10.6009031811
s   1 1.0 
       11.0400000000         4.3165512068
s   1 1.0 
        4.4910000000         2.1987071238
s   1 1.0 
        1.1290000000         0.7806035979
s   1 1.0 
        0.4546000000         0.3945773627
s   1 1.0 
        0.0775300000         0.1047158519
s   1 1.0 
        0.0307900000         0.0523862558
p   1 1.0 
       32.5900000000       110.9929868356
p   1 1.0 
       13.2200000000        35.9318358362
p   1 1.0 
        5.5840000000        12.2355036216
p   1 1.0 
        2.1860000000         3.7888096331
p   1 1.0 
        0.8950000000         1.2408488486
p   1 1.0 
        0.3520000000         0.3864723405
d   1 1.0 
       22.4300000000       659.0544735975
d   1 1.0 
        6.0350000000        66.2453370087
d   1 1.0 
        1.9790000000         9.4134804158
d   1 1.0 
        0.6668000000         1.4026921550
d   1 1.0 
        0.2182000000         0.1985938931
d   1 1.0 
        0.0588000000         0.0200161434

  2 0
s   1 1.0 
       11.3800000000         4.4158751773
s   1 1.0 
        1.1320000000         0.7821587577
s   1 1.0 
        0.5625000000         0.4629157821
s   1 1.0 
        0.2566000000         0.2569523425
p   1 1.0 
       17.1600000000        49.7836451360
p   1 1.0 
        3.8930000000         7.7946315770
p   1 1.0 
        1.0880000000         1.5838943408
p   1 1.0 
        0.2980000000         0.3138415341

[5D]
[7F]
[9G]
[MO]
 Sym=     1a
 Ene= -2.75247394548522E+00
 Spin= Alpha
 Occup= 2.000000
  1       0.011898699444
  2      -0.063234454314
  3       0.371935997869
  4      -0.560600284572
  5      -0.589323989421
  6      -0.012002597047
  7       0.002689747483
  8       0.000000000000
  9      -0.000000000001
 10       0.001180292780
 11      -0.000000000014
 12      -0.000000000000
 13       0.000210635934
 14       0.000000000011
 15       0.000000000006
 16       0.009370732724
 17      -0.000000000006
 18      -0.000000000032
 19      -0.029174009825
 20       0.000000000377
 21       0.000000000109
 22      -0.098311137314
 23      -0.000000000085
 24      -0.000000000078
 25      -0.048665185166
 26      -0.000622283198
 27       0.000000000001
 28       0.000000000001
 29       0.000000000000
 30      -0.000000000001
 31      -0.003036822945
 32       0.000000000004
 33      -0.000000000005
 34      -0.000000000000
 35       0.000000000002
 36      -0.008778352835
 37       0.000000000009
 38       0.000000000017
 39       0.000000000013
 40      -0.000000000013
 41      -0.024783546209
 42       0.000000000046
 43      -0.000000000014
 44       0.000000000011
 45       0.000000000012
 46      -0.002845744984
 47      -0.000000000087
 48      -0.000000000002
 49       0.000000000029
 50      -0.000000000026
 51       0.001059368735
 52       0.000000000018
 53      -0.000000000016
 54      -0.000000000024
 55       0.000000000015
 56       0.027010597796
 57      -0.105570498256
 58      -0.054176582616
 59       0.019310952306
 60       0.000000000000
 61      -0.000000000001
 62       0.007979701370
 63       0.000000000010
 64      -0.000000000003
 65       0.034534622263
 66      -0.000000000013
 67      -0.000000000011
 68       0.063360898448
 69       0.000000000071
 70       0.000000000029
 71      -0.017061646574
 Sym=     1a
 Ene= -2.10912711548002E+00
 Spin= Alpha
 Occup= 2.000000
  1       0.004334327850
  2      -0.022213831949
  3       0.139234813206
  4      -0.233234859795
  5      -0.205468873508
  6      -0.009536934486
  7       0.002371437927
  8      -0.000000000003
  9       0.000000000001
 10      -0.005400384551
 11      -0.000000000003
 12      -0.000000000005
 13      -0.000956130792
 14      -0.000000000021
 15       0.000000000019
 16      -0.042121439010
 17       0.000000000073
 18      -0.000000000045
 19       0.143332351983
 20       0.000000000307
 21      -0.000000000000
 22       0.415747486831
 23       0.000000000026
 24      -0.000000000034
 25       0.173736706457
 26       0.002596903371
 27      -0.000000000002
 28      -0.000000000000
 29       0.000000000001
 30      -0.000000000000
 31       0.011509257691
 32      -0.000000000011
 33      -0.000000000003
 34       0.000000000005
 35      -0.000000000002
 36       0.041334435006
 37      -0.000000000045
 38      -0.000000000002
 39       0.000000000013
 40      -0.000000000005
 41       0.065320779909
 42      -0.000000000027
 43      -0.000000000022
 44      -0.000000000018
 45       0.000000000009
 46      -0.001027147454
 47      -0.000000000058
 48       0.000000000022
 49       0.000000000030
 50      -0.000000000009
 51       0.000184489074
 52       0.000000000018
 53      -0.000000000015
 54      -0.000000000013
 55       0.000000000004
 56      -0.075673125422
 57       0.306891687285
 58       0.168323958900
 59       0.065696974190
 60      -0.000000000003
 61      -0.000000000001
 62      -0.014237346186
 63      -0.000000000001
 64      -0.000000000001
 65      -0.061147304745
 66      -0.000000000041
 67      -0.000000000008
 68      -0.123313739183
 69       0.000000000044
 70      -0.000000000015
 71      -0.008689066438
 Sym=     1a
 Ene= -1.86067166749770E+00
 Spin= Alpha
 Occup= 2.000000
  1      -0.000000000001
  2       0.000000000007
  3      -0.000000000044
  4       0.000000000079
  5       0.000000000020
  6       0.000000000182
  7      -0.000000000129
  8      -0.002018739151
  9      -0.007993919819
 10       0.000000000001
 11      -0.000204072146
 12      -0.000808096683
 13      -0.000000000003
 14      -0.016163843940
 15      -0.064006522258
 16       0.000000000006
 17       0.057180874584
 18       0.226428127914
 19      -0.000000000004
 20       0.147332552011
 21       0.583415944567
 22      -0.000000000027
 23       0.069168982855
 24       0.273899331074
 25       0.000000000064
 26       0.000000000000
 27       0.000274645633
 28       0.001087557633
 29      -0.000000000001
 30      -0.000000000004
 31       0.000000000003
 32       0.001541428032
 33       0.006103835696
 34      -0.000000000004
 35      -0.000000000020
 36      -0.000000000001
 37       0.004283826782
 38       0.016963344566
 39      -0.000000000018
 40      -0.000000000074
 41       0.000000000038
 42       0.007821450798
 43       0.030971832380
 44      -0.000000000005
 45      -0.000000000091
 46       0.000000000040
 47       0.000612547739
 48       0.002425601871
 49      -0.000000000007
 50      -0.000000000003
 51      -0.000000000011
 52      -0.000299025042
 53      -0.001184096609
 54      -0.000000000006
 55      -0.000000000006
 56      -0.000000000006
 57       0.000000000133
 58      -0.000000000248
 59       0.000000000058
 60       0.001533987887
 61       0.006074373787
 62      -0.000000000000
 63       0.006543099654
 64       0.025909743717
 65      -0.000000000009
 66       0.012418780719
 67       0.049176604777
 68       0.000000000013
 69       0.004247565696
 70       0.016819755866
 71       0.000000000019
 Sym=     1a
 Ene= -1.86067166737784E+00
 Spin= Alpha
 Occup= 2.000000
  1      -0.000000000005
  2       0.000000000029
  3      -0.000000000156
  4       0.000000000262
  5       0.000000000122
  6      -0.000000000093
  7       0.000000000039
  8      -0.007993919819
  9       0.002018739149
 10       0.000000000003
 11      -0.000808096684
 12       0.000204072156
 13       0.000000000001
 14      -0.064006522254
 15       0.016163843912
 16       0.000000000021
 17       0.226428127925
 18      -0.057180874534
 19      -0.000000000087
 20       0.583415944520
 21      -0.147332552074
 22      -0.000000000159
 23       0.273899331122
 24      -0.069168982814
 25      -0.000000000248
 26       0.000000000002
 27       0.001087557633
 28      -0.000274645633
 29      -0.000000000004
 30       0.000000000001
 31       0.000000000005
 32       0.006103835715
 33      -0.001541428034
 34      -0.000000000018
 35       0.000000000006
 36       0.000000000036
 37       0.016963344580
 38      -0.004283826778
 39      -0.000000000074
 40       0.000000000015
 41       0.000000000033
 42       0.030971832334
 43      -0.007821450790
 44      -0.000000000094
 45       0.000000000023
 46      -0.000000000037
 47       0.002425601901
 48      -0.000612547733
 49      -0.000000000007
 50      -0.000000000000
 51       0.000000000009
 52      -0.001184096607
 53       0.000299025034
 54       0.000000000005
 55       0.000000000006
 56       0.000000000003
 57       0.000000000074
 58      -0.000000000272
 59       0.000000000342
 60       0.006074373788
 61      -0.001533987887
 62       0.000000000000
 63       0.025909743716
 64      -0.006543099653
 65       0.000000000005
 66       0.049176604785
 67      -0.012418780719
 68       0.000000000004
 69       0.016819755848
 70      -0.004247565705
 71      -0.000000000119
 Sym=     1a
 Ene= -1.56696303929362E+00
 Spin= Alpha
 Occup= 2.000000
  1       0.001561869010
  2      -0.007687300550
  3       0.052884901751
  4      -0.093053943875
  5      -0.120799142955
  6       0.004530354239
  7       0.000291202390
  8       0.000000000002
  9       0.000000000001
 10       0.005576542561
 11      -0.000000000005
 12      -0.000000000003
 13       0.001286480754
 14       0.000000000023
 15       0.000000000012
 16       0.044071668481
 17      -0.000000000068
 18      -0.000000000032
 19      -0.165015685918
 20       0.000000000001
 21       0.000000000014
 22      -0.418412225952
 23      -0.000000000135
 24       0.000000000033
 25      -0.227723897033
 26       0.001760543283
 27       0.000000000003
 28       0.000000000002
 29      -0.000000000000
 30      -0.000000000000
 31       0.008656337462
 32       0.000000000023
 33      -0.000000000001
 34      -0.000000000007
 35       0.000000000003
 36       0.026950348107
 37       0.000000000047
 38       0.000000000030
 39      -0.000000000001
 40      -0.000000000004
 41       0.023774374035
 42       0.000000000102
 43       0.000000000007
 44       0.000000000005
 45      -0.000000000003
 46       0.014751835805
 47      -0.000000000043
 48       0.000000000013
 49       0.000000000010
 50      -0.000000000007
 51      -0.000230591215
 52       0.000000000008
 53      -0.000000000009
 54       0.000000000007
 55       0.000000000024
 56      -0.107517250632
 57       0.439325185618
 58       0.281449306007
 59       0.263123433136
 60      -0.000000000005
 61       0.000000000003
 62       0.010289368320
 63      -0.000000000011
 64       0.000000000005
 65       0.050659853540
 66      -0.000000000053
 67       0.000000000035
 68       0.059784993585
 69      -0.000000000008
 70       0.000000000004
 71      -0.011325070396
 Sym=     1a
 Ene= -1.10239413639587E+00
 Spin= Alpha
 Occup= 2.000000
  1       0.000000000003
  2      -0.000000000022
  3       0.000000000036
  4      -0.000000000023
  5      -0.000000000031
  6       0.000000000368
  7      -0.000000000169
  8      -0.000637931984
  9      -0.001674848906
 10      -0.000000000004
 11      -0.000089882138
 12      -0.000235979705
 13       0.000000000022
 14      -0.005150691288
 15      -0.013522804769
 16      -0.000000000065
 17       0.019860488756
 18       0.052142420720
 19       0.000000000152
 20       0.049527238001
 21       0.130030540103
 22      -0.000000000198
 23       0.014674444977
 24       0.038526800260
 25       0.000000000138
 26      -0.000000000000
 27      -0.002076102816
 28      -0.005450672832
 29      -0.000000000000
 30      -0.000000000002
 31      -0.000000000005
 32      -0.011059969973
 33      -0.029037231385
 34      -0.000000000003
 35      -0.000000000006
 36      -0.000000000001
 37      -0.029631312791
 38      -0.077795083341
 39      -0.000000000008
 40      -0.000000000026
 41      -0.000000000042
 42      -0.056468148965
 43      -0.148253450151
 44      -0.000000000004
 45      -0.000000000035
 46       0.000000000069
 47      -0.022153315328
 48      -0.058162087688
 49      -0.000000000002
 50       0.000000000008
 51       0.000000000019
 52       0.001390662278
 53       0.003651093347
 54       0.000000000007
 55      -0.000000000001
 56       0.000000000002
 57      -0.000000000032
 58       0.000000000045
 59      -0.000000000158
 60      -0.021447601091
 61      -0.056309280844
 62       0.000000000003
 63      -0.094587167751
 64      -0.248332453145
 65       0.000000000025
 66      -0.174789309748
 67      -0.458897957373
 68       0.000000000021
 69      -0.109089351626
 70      -0.286406993112
 71       0.000000000047
 Sym=     1a
 Ene= -1.10239413635953E+00
 Spin= Alpha
 Occup= 2.000000
  1       0.000000000000
  2      -0.000000000000
  3       0.000000000006
  4      -0.000000000012
  5      -0.000000000000
  6       0.000000000225
  7      -0.000000000292
  8       0.001674848906
  9      -0.000637931984
 10      -0.000000000002
 11       0.000235979701
 12      -0.000089882137
 13       0.000000000008
 14       0.013522804776
 15      -0.005150691292
 16      -0.000000000030
 17      -0.052142420715
 18       0.019860488769
 19       0.000000000076
 20      -0.130030540112
 21       0.049527237992
 22      -0.000000000007
 23      -0.038526800261
 24       0.014674444971
 25       0.000000000108
 26      -0.000000000001
 27       0.005450672830
 28      -0.002076102817
 29       0.000000000002
 30      -0.000000000001
 31      -0.000000000002
 32       0.029037231371
 33      -0.011059969974
 34       0.000000000008
 35      -0.000000000002
 36      -0.000000000029
 37       0.077795083316
 38      -0.029631312800
 39       0.000000000027
 40      -0.000000000009
 41       0.000000000004
 42       0.148253450105
 43      -0.056468148957
 44       0.000000000034
 45      -0.000000000006
 46       0.000000000014
 47       0.058162087668
 48      -0.022153315351
 49       0.000000000010
 50      -0.000000000013
 51      -0.000000000023
 52      -0.003651093313
 53       0.001390662296
 54      -0.000000000016
 55       0.000000000029
 56      -0.000000000018
 57       0.000000000160
 58      -0.000000000151
 59       0.000000000047
 60       0.056309280848
 61      -0.021447601091
 62       0.000000000008
 63       0.248332453163
 64      -0.094587167746
 65       0.000000000039
 66       0.458897957385
 67      -0.174789309742
 68       0.000000000051
 69       0.286406993124
 70      -0.109089351627
 71       0.000000000104
 Sym=     1a
 Ene= -1.00456967477061E+00
 Spin= Alpha
 Occup= 2.000000
  1      -0.001972757780
  2       0.009804464711
  3      -0.066641807731
  4       0.142626924105
  5       0.083180297422
  6      -0.041966065217
  7       0.017741096639
  8      -0.000000000001
  9       0.000000000001
 10      -0.003267410086
 11      -0.000000000001
 12      -0.000000000001
 13       0.000077387937
 14      -0.000000000003
 15       0.000000000002
 16      -0.027453522759
 17       0.000000000019
 18       0.000000000004
 19       0.108970347536
 20       0.000000000056
 21      -0.000000000087
 22       0.201445710480
 23       0.000000000049
 24       0.000000000088
 25       0.138093097434
 26      -0.010664536405
 27      -0.000000000004
 28       0.000000000000
 29       0.000000000000
 30       0.000000000000
 31      -0.055115581249
 32      -0.000000000024
 33       0.000000000006
 34       0.000000000005
 35      -0.000000000001
 36      -0.159288928296
 37      -0.000000000067
 38       0.000000000003
 39       0.000000000001
 40       0.000000000003
 41      -0.244432943419
 42      -0.000000000077
 43       0.000000000027
 44      -0.000000000028
 45       0.000000000009
 46      -0.098870810195
 47      -0.000000000054
 48       0.000000000023
 49       0.000000000056
 50      -0.000000000009
 51      -0.002794287923
 52      -0.000000000017
 53       0.000000000054
 54      -0.000000000077
 55      -0.000000000022
 56      -0.003670587799
 57       0.030832318521
 58      -0.109215901170
 59       0.253471959001
 60      -0.000000000002
 61       0.000000000006
 62       0.058104767527
 63      -0.000000000007
 64       0.000000000017
 65       0.255921082439
 66      -0.000000000036
 67       0.000000000073
 68       0.482313681725
 69       0.000000000038
 70      -0.000000000049
 71       0.197809112118
 Sym=     1a
 Ene= -6.39248245498167E-01
 Spin= Alpha
 Occup= 0.000000
  1       0.000000000002
  2      -0.000000000019
  3       0.000000000028
  4      -0.000000000033
  5       0.000000000058
  6      -0.000000000195
  7       0.000000000181
  8      -0.000000000001
  9       0.000000000001
 10       0.000000000001
 11      -0.000000000001
 12      -0.000000000006
 13      -0.000000000004
 14      -0.000000000009
 15       0.000000000016
 16       0.000000000005
 17       0.000000000044
 18      -0.000000000033
 19       0.000000000022
 20       0.000000000071
 21       0.000000000035
 22      -0.000000000054
 23       0.000000000072
 24      -0.000000000033
 25      -0.000000000003
 26      -0.000000000000
 27      -0.000000000002
 28      -0.000000000000
 29       0.021798654272
 30       0.000000006794
 31      -0.000000000009
 32      -0.000000000012
 33       0.000000000001
 34       0.112741657379
 35       0.000000035143
 36       0.000000000002
 37      -0.000000000035
 38      -0.000000000001
 39       0.324310954118
 40       0.000000101083
 41      -0.000000000015
 42      -0.000000000044
 43       0.000000000000
 44       0.483779715947
 45       0.000000150804
 46      -0.000000000050
 47      -0.000000000056
 48      -0.000000000005
 49       0.354024964979
 50       0.000000110304
 51      -0.000000000032
 52       0.000000000066
 53       0.000000000029
 54       0.039170810594
 55       0.000000012358
 56      -0.000000000003
 57       0.000000000062
 58      -0.000000000120
 59       0.000000000136
 60      -0.000000000000
 61       0.000000000001
 62      -0.000000000002
 63      -0.000000000001
 64       0.000000000002
 65      -0.000000000005
 66       0.000000000000
 67       0.000000000011
 68      -0.000000000011
 69       0.000000000003
 70      -0.000000000004
 71      -0.000000000043
 Sym=     1a
 Ene= -6.39236734083350E-01
 Spin= Alpha
 Occup= 0.000000
  1       0.000000000003
  2      -0.000000000020
  3       0.000000000038
  4      -0.000000000072
  5       0.000000000105
  6      -0.000000000253
  7       0.000000000291
  8       0.000000000001
  9       0.000000000001
 10       0.000000000001
 11      -0.000000000003
 12       0.000000000000
 13      -0.000000000003
 14       0.000000000011
 15       0.000000000011
 16       0.000000000009
 17      -0.000000000021
 18      -0.000000000042
 19      -0.000000000011
 20       0.000000000010
 21      -0.000000000080
 22      -0.000000000018
 23      -0.000000000018
 24      -0.000000000071
 25       0.000000000021
 26       0.000000000000
 27      -0.000000000001
 28       0.000000000001
 29       0.000000006796
 30      -0.021798908844
 31      -0.000000000003
 32      -0.000000000007
 33       0.000000000009
 34       0.000000035144
 35      -0.112742548736
 36       0.000000000004
 37      -0.000000000017
 38       0.000000000020
 39       0.000000101103
 40      -0.324316178746
 41       0.000000000003
 42      -0.000000000036
 43       0.000000000018
 44       0.000000150798
 45      -0.483775925775
 46      -0.000000000014
 47       0.000000000007
 48       0.000000000055
 49       0.000000110405
 50      -0.354023159777
 51      -0.000000000079
 52      -0.000000000205
 53      -0.000000000128
 54       0.000000012063
 55      -0.039172457164
 56      -0.000000000001
 57       0.000000000025
 58      -0.000000000060
 59       0.000000000062
 60       0.000000000002
 61       0.000000000001
 62      -0.000000000001
 63       0.000000000016
 64       0.000000000009
 65      -0.000000000004
 66       0.000000000008
 67       0.000000000002
 68      -0.000000000011
 69       0.000000000065
 70       0.000000000020
 71       0.000000000010
 Sym=     1a
 Ene= -5.48444058134404E-01
 Spin= Alpha
 Occup= 0.000000
  1      -0.000000000104
  2       0.000000000504
  3      -0.000000003582
  4       0.000000007654
  5       0.000000010131
  6      -0.000000018641
  7       0.000000000303
  8       0.000079571969
  9       0.000506743557
 10      -0.000000000012
 11       0.000177587605
 12       0.001130943194
 13      -0.000000000033
 14       0.000438639206
 15       0.002793415734
 16      -0.000000000062
 17      -0.002778981216
 18      -0.017697574302
 19       0.000000000406
 20      -0.011586035541
 21      -0.073784135269
 22       0.000000001682
 23       0.002899293793
 24       0.018463769060
 25       0.000000003147
 26       0.000000000196
 27      -0.003442162837
 28      -0.021920958848
 29       0.000000000000
 30       0.000000000001
 31       0.000000001032
 32      -0.017841732342
 33      -0.113622713072
 34      -0.000000000000
 35       0.000000000004
 36       0.000000002843
 37      -0.051090749540
 38      -0.325364682358
 39       0.000000000002
 40       0.000000000010
 41       0.000000004857
 42      -0.076337532419
 43      -0.486145480500
 44      -0.000000000006
 45       0.000000000001
 46       0.000000005002
 47      -0.060080113477
 48      -0.382612257983
 49       0.000000000008
 50       0.000000000004
 51       0.000000001117
 52      -0.003196107783
 53      -0.020353989597
 54      -0.000000000054
 55      -0.000000000154
 56      -0.000000000156
 57       0.000000000924
 58       0.000000001654
 59      -0.000000006178
 60       0.004350398604
 61       0.027704938225
 62       0.000000000391
 63       0.020268293824
 64       0.129075948991
 65       0.000000001801
 66       0.034413591598
 67       0.219158407366
 68       0.000000003094
 69       0.048224297746
 70       0.307110063171
 71       0.000000007125
 Sym=     1a
 Ene= -5.48444058029370E-01
 Spin= Alpha
 Occup= 0.000000
  1      -0.000000000063
  2       0.000000000305
  3      -0.000000002186
  4       0.000000004665
  5       0.000000006229
  6      -0.000000010464
  7      -0.000000000764
  8       0.000506743557
  9      -0.000079571968
 10      -0.000000000008
 11       0.001130943197
 12      -0.000177587610
 13      -0.000000000008
 14       0.002793415736
 15      -0.000438639192
 16      -0.000000000065
 17      -0.017697574380
 18       0.002778981201
 19       0.000000000323
 20      -0.073784135096
 21       0.011586035523
 22       0.000000000670
 23       0.018463768920
 24      -0.002899293750
 25       0.000000002347
 26       0.000000000122
 27      -0.021920958848
 28       0.003442162837
 29      -0.000000000001
 30       0.000000000002
 31       0.000000000638
 32      -0.113622713065
 33       0.017841732339
 34      -0.000000000005
 35       0.000000000012
 36       0.000000001771
 37      -0.325364682363
 38       0.051090749544
 39      -0.000000000014
 40       0.000000000035
 41       0.000000003042
 42      -0.486145480480
 43       0.076337532400
 44      -0.000000000031
 45       0.000000000050
 46       0.000000003248
 47      -0.382612258035
 48       0.060080113526
 49      -0.000000000035
 50       0.000000000061
 51       0.000000000644
 52      -0.020353989699
 53       0.003196107744
 54      -0.000000000079
 55      -0.000000000126
 56      -0.000000000108
 57       0.000000000662
 58       0.000000000990
 59      -0.000000004210
 60       0.027704938222
 61      -0.004350398604
 62       0.000000000238
 63       0.129075948978
 64      -0.020268293820
 65       0.000000001087
 66       0.219158407333
 67      -0.034413591603
 68       0.000000001893
 69       0.307110063196
 70      -0.048224297757
 71       0.000000004561
 Sym=     1a
 Ene= -5.45928830240534E-01
 Spin= Alpha
 Occup= 0.000000
  1      -0.004911160554
  2       0.023960866406
  3      -0.167985368492
  4       0.361022497753
  5       0.460864193709
  6      -0.905515511055
  7       0.035387527863
  8      -0.000000000010
  9       0.000000000003
 10      -0.000741505882
 11      -0.000000000004
 12      -0.000000000076
 13      -0.000518911987
 14      -0.000000000069
 15       0.000000000088
 16      -0.005542327641
 17       0.000000000330
 18       0.000000000093
 19       0.024261636622
 20       0.000000000869
 21       0.000000001472
 22       0.068542066389
 23       0.000000000157
 24      -0.000000000330
 25       0.136887828946
 26       0.008945157603
 27       0.000000000371
 28       0.000000000434
 29       0.000000000008
 30      -0.000000000000
 31       0.047205241327
 32       0.000000001905
 33       0.000000002249
 34       0.000000000015
 35      -0.000000000003
 36       0.130127132884
 37       0.000000005553
 38       0.000000006449
 39       0.000000000161
 40      -0.000000000011
 41       0.221074350558
 42       0.000000007961
 43       0.000000009564
 44      -0.000000000142
 45       0.000000000030
 46       0.223222307061
 47       0.000000007054
 48       0.000000007580
 49       0.000000000863
 50      -0.000000000046
 51       0.049526237853
 52      -0.000000001139
 53      -0.000000001332
 54      -0.000000002011
 55      -0.000000000162
 56      -0.007045985156
 57       0.042174270282
 58       0.065513752881
 59      -0.247703969824
 60      -0.000000000467
 61      -0.000000000549
 62       0.017896251585
 63      -0.000000002158
 64      -0.000000002520
 65       0.082437368851
 66      -0.000000003701
 67      -0.000000004463
 68       0.142151887612
 69      -0.000000005267
 70      -0.000000005523
 71       0.311449282594
 Sym=     1a
 Ene= -3.84165557578015E-01
 Spin= Alpha
 Occup= 0.000000
  1      -0.000313682746
  2       0.002890133104
  3      -0.006773839110
  4       0.041803109535
  5      -0.100643677060
  6      -0.924447127968
  7      -0.153309963663
  8       0.000000000006
  9       0.000000000011
 10       0.003517687226
 11      -0.000000000034
 12      -0.000000000045
 13       0.001402343543
 14       0.000000000099
 15       0.000000000133
 16       0.027497804375
 17      -0.000000000245
 18      -0.000000000296
 19      -0.118642603650
 20       0.000000000431
 21       0.000000000124
 22      -0.309154025581
 23      -0.000000000430
 24      -0.000000000055
 25      -0.208167271353
 26      -0.013072825118
 27       0.000000000013
 28       0.000000000010
 29       0.000000000007
 30       0.000000000000
 31      -0.068115053448
 32       0.000000000047
 33       0.000000000023
 34       0.000000000031
 35      -0.000000000005
 36      -0.194128173356
 37       0.000000000242
 38       0.000000000197
 39       0.000000000136
 40      -0.000000000003
 41      -0.286727308829
 42       0.000000000071
 43      -0.000000000020
 44      -0.000000000019
 45       0.000000000003
 46      -0.463562613754
 47       0.000000000076
 48       0.000000000369
 49       0.000000000637
 50      -0.000000000032
 51      -0.198701975402
 52      -0.000000002532
 53      -0.000000003423
 54      -0.000000002091
 55       0.000000000055
 56      -0.026736503194
 57       0.192220740028
 58      -0.202380890150
 59       1.120720484165
 60       0.000000000006
 61       0.000000000018
 62      -0.023663258753
 63       0.000000000087
 64       0.000000000092
 65      -0.105683466305
 66      -0.000000000019
 67       0.000000000098
 68      -0.205604875567
 69       0.000000000467
 70       0.000000000407
 71      -0.454057928957
 Sym=     1a
 Ene= -2.16570081616458E-01
 Spin= Alpha
 Occup= 0.000000
  1      -0.002520254473
  2       0.012987632009
  3      -0.084656931925
  4       0.211560808511
  5       0.162355850812
  6      -2.229110275946
  7       2.002988623786
  8      -0.000000000010
  9       0.000000000007
 10       0.001385551497
 11      -0.000000000039
 12      -0.000000000037
 13      -0.000036743803
 14      -0.000000000026
 15       0.000000000114
 16       0.011780634559
 17       0.000000000247
 18      -0.000000000329
 19      -0.049672162109
 20       0.000000002250
 21       0.000000000814
 22      -0.101457301962
 23      -0.000000001673
 24      -0.000000001072
 25      -0.100491971453
 26       0.002083407930
 27      -0.000000000249
 28       0.000000000064
 29       0.000000000255
 30       0.000000000151
 31       0.012293141853
 32      -0.000000001342
 33       0.000000000342
 34       0.000000001299
 35       0.000000000847
 36       0.027990929450
 37      -0.000000003597
 38       0.000000000911
 39       0.000000003895
 40       0.000000002188
 41       0.065787541920
 42      -0.000000006119
 43       0.000000001700
 44       0.000000004951
 45       0.000000003742
 46      -0.170439936160
 47       0.000000000359
 48      -0.000000000641
 49       0.000000002135
 50      -0.000000000649
 51      -0.324700369659
 52       0.000000041596
 53      -0.000000011612
 54      -0.000000034439
 55      -0.000000017207
 56       0.002063888416
 57       0.077603207420
 58      -0.381888449544
 59       0.834132205236
 60      -0.000000000312
 61       0.000000000104
 62      -0.004016707986
 63      -0.000000001567
 64       0.000000000497
 65      -0.019215108777
 66      -0.000000002666
 67       0.000000000927
 68      -0.030320694873
 69      -0.000000001860
 70       0.000000000820
 71      -0.124423231926
 Sym=     1a
 Ene= -2.01855247650550E-01
 Spin= Alpha
 Occup= 0.000000
  1      -0.000000000100
  2       0.000000000514
  3      -0.000000003391
  4       0.000000008532
  5       0.000000006067
  6      -0.000000071616
  7       0.000000062619
  8      -0.000000002162
  9      -0.000000000848
 10       0.000000000041
 11      -0.000000001791
 12      -0.000000000717
 13       0.000000000028
 14      -0.000000014824
 15      -0.000000005805
 16       0.000000000302
 17       0.000000063926
 18       0.000000025123
 19      -0.000000001375
 20       0.000000268416
 21       0.000000105571