4
	Energy:       0.0128104
  C          -2.91360231391878      2.24229763716086      0.11945855834176
  O          -3.86359950708136      1.45276431944082     -0.03291698026637
  H          -1.96130508976244      1.76983296656747      0.51482813688147
  O          -2.83901308923741      3.46670507683085     -0.09140971495686
